;
;	File 'topol.top' was generated
;	By user: unknown (1000)
;	On host: keke
;	At date: Thu Sep 24 17:32:33 2026
;
;	This is a standalone topology file
;
;	Created by:
;	                    :-) GROMACS - gmx pdb2gmx, 2021.6 (-:
;	
;	Executable:   /usr/local/gromacs/bin/gmx
;	Data prefix:  /usr/local/gromacs
;	Working dir:  /home/zml/MD_6WJL/complex_1760
;	Command line:
;	  gmx pdb2gmx -f 1760_complex.pdb -o 1760_processed.gro -ignh
;	Force field was read from the standard GROMACS share directory.
;

; Include forcefield parameters
#include "charmm27.ff/forcefield.itp"

; Include chain topologies
#include "topol_Protein_chain_A.itp"
#include "topol_Protein_chain_B.itp"

; Include water topology
#include "charmm27.ff/tip3p.itp"

#ifdef POSRES_WATER
; Position restraint for each water oxygen
[ position_restraints ]
;  i funct       fcx        fcy        fcz
   1    1       1000       1000       1000
#endif

; Include topology for ions
#include "charmm27.ff/ions.itp"

[ system ]
; Name
Protein in water

[ molecules ]
; Compound        #mols
Protein_chain_A     1
Protein_chain_B     1
SOL         26169
NA               81
CL               79
