;
;	File 'topol_Protein_chain_B.itp' was generated
;	By user: unknown (1000)
;	On host: keke
;	At date: Thu Sep 24 17:32:39 2026
;
;	This is a include topology file
;
;	Created by:
;	                    :-) GROMACS - gmx pdb2gmx, 2021.6 (-:
;	
;	Executable:   /usr/local/gromacs/bin/gmx
;	Data prefix:  /usr/local/gromacs
;	Working dir:  /home/zml/MD_6WJL/complex_1760
;	Command line:
;	  gmx pdb2gmx -f 1760_complex.pdb -o 1760_processed.gro -ignh
;	Force field was read from the standard GROMACS share directory.
;

[ moleculetype ]
; Name            nrexcl
Protein_chain_B     3

[ atoms ]
;   nr       type  resnr residue  atom   cgnr     charge       mass  typeB    chargeB      massB
; residue   1 ASP rtp ASP  q  0.0
     1        NH3      1    ASP      N      1       -0.3     14.007
     2         HC      1    ASP     H1      2       0.33      1.008
     3         HC      1    ASP     H2      3       0.33      1.008
     4         HC      1    ASP     H3      4       0.33      1.008
     5        CT1      1    ASP     CA      5       0.21     12.011
     6         HB      1    ASP     HA      6        0.1      1.008
     7        CT2      1    ASP     CB      7      -0.28     12.011
     8         HA      1    ASP    HB1      8       0.09      1.008
     9         HA      1    ASP    HB2      9       0.09      1.008
    10         CC      1    ASP     CG     10       0.62     12.011
    11         OC      1    ASP    OD1     11      -0.76     15.999
    12         OC      1    ASP    OD2     12      -0.76     15.999
    13          C      1    ASP      C     13       0.51     12.011
    14          O      1    ASP      O     14      -0.51     15.999   ; qtot 0
; residue   2 GLU rtp GLU  q -1.0
    15        NH1      2    GLU      N     15      -0.47     14.007
    16          H      2    GLU     HN     16       0.31      1.008
    17        CT1      2    GLU     CA     17       0.07     12.011
    18         HB      2    GLU     HA     18       0.09      1.008
    19        CT2      2    GLU     CB     19      -0.18     12.011
    20         HA      2    GLU    HB1     20       0.09      1.008
    21         HA      2    GLU    HB2     21       0.09      1.008
    22        CT2      2    GLU     CG     22      -0.28     12.011
    23         HA      2    GLU    HG1     23       0.09      1.008
    24         HA      2    GLU    HG2     24       0.09      1.008
    25         CC      2    GLU     CD     25       0.62     12.011
    26         OC      2    GLU    OE1     26      -0.76     15.999
    27         OC      2    GLU    OE2     27      -0.76     15.999
    28          C      2    GLU      C     28       0.51     12.011
    29          O      2    GLU      O     29      -0.51     15.999   ; qtot -1
; residue   3 TRP rtp TRP  q  0.0
    30        NH1      3    TRP      N     30      -0.47     14.007
    31          H      3    TRP     HN     31       0.31      1.008
    32        CT1      3    TRP     CA     32       0.07     12.011
    33         HB      3    TRP     HA     33       0.09      1.008
    34        CT2      3    TRP     CB     34      -0.18     12.011
    35         HA      3    TRP    HB1     35       0.09      1.008
    36         HA      3    TRP    HB2     36       0.09      1.008
    37         CY      3    TRP     CG     37      -0.03     12.011
    38         CA      3    TRP    CD1     38      0.035     12.011
    39         HP      3    TRP    HD1     39      0.115      1.008
    40         NY      3    TRP    NE1     40      -0.61     14.007
    41          H      3    TRP    HE1     41       0.38      1.008
    42        CPT      3    TRP    CE2     42       0.13     12.011
    43        CPT      3    TRP    CD2     43      -0.02     12.011
    44         CA      3    TRP    CE3     44     -0.115     12.011
    45         HP      3    TRP    HE3     45      0.115      1.008
    46         CA      3    TRP    CZ3     46     -0.115     12.011
    47         HP      3    TRP    HZ3     47      0.115      1.008
    48         CA      3    TRP    CZ2     48     -0.115     12.011
    49         HP      3    TRP    HZ2     49      0.115      1.008
    50         CA      3    TRP    CH2     50     -0.115     12.011
    51         HP      3    TRP    HH2     51      0.115      1.008
    52          C      3    TRP      C     52       0.51     12.011
    53          O      3    TRP      O     53      -0.51     15.999   ; qtot -1
; residue   4 ALA rtp ALA  q  0.0
    54        NH1      4    ALA      N     54      -0.47     14.007
    55          H      4    ALA     HN     55       0.31      1.008
    56        CT1      4    ALA     CA     56       0.07     12.011
    57         HB      4    ALA     HA     57       0.09      1.008
    58        CT3      4    ALA     CB     58      -0.27     12.011
    59         HA      4    ALA    HB1     59       0.09      1.008
    60         HA      4    ALA    HB2     60       0.09      1.008
    61         HA      4    ALA    HB3     61       0.09      1.008
    62          C      4    ALA      C     62       0.51     12.011
    63          O      4    ALA      O     63      -0.51     15.999   ; qtot -1
; residue   5 GLU rtp GLU  q -1.0
    64        NH1      5    GLU      N     64      -0.47     14.007
    65          H      5    GLU     HN     65       0.31      1.008
    66        CT1      5    GLU     CA     66       0.07     12.011
    67         HB      5    GLU     HA     67       0.09      1.008
    68        CT2      5    GLU     CB     68      -0.18     12.011
    69         HA      5    GLU    HB1     69       0.09      1.008
    70         HA      5    GLU    HB2     70       0.09      1.008
    71        CT2      5    GLU     CG     71      -0.28     12.011
    72         HA      5    GLU    HG1     72       0.09      1.008
    73         HA      5    GLU    HG2     73       0.09      1.008
    74         CC      5    GLU     CD     74       0.62     12.011
    75         OC      5    GLU    OE1     75      -0.76     15.999
    76         OC      5    GLU    OE2     76      -0.76     15.999
    77          C      5    GLU      C     77       0.51     12.011
    78          O      5    GLU      O     78      -0.51     15.999   ; qtot -2
; residue   6 GLY rtp GLY  q -1.0
    79        NH1      6    GLY      N     79      -0.47     14.007
    80          H      6    GLY     HN     80       0.31      1.008
    81        CT2      6    GLY     CA     81      -0.02     12.011
    82         HB      6    GLY    HA1     82       0.09      1.008
    83         HB      6    GLY    HA2     83       0.09      1.008
    84         CC      6    GLY      C     84       0.34     12.011
    85         OC      6    GLY    OT1     85      -0.67    15.9994
    86         OC      6    GLY    OT2     86      -0.67    15.9994   ; qtot -3

[ bonds ]
;  ai    aj funct            c0            c1            c2            c3
    1     2     1 
    1     3     1 
    1     4     1 
    1     5     1 
    5     6     1 
    5     7     1 
    5    13     1 
    7     8     1 
    7     9     1 
    7    10     1 
   10    11     1 
   10    12     1 
   13    14     1 
   13    15     1 
   15    16     1 
   15    17     1 
   17    18     1 
   17    19     1 
   17    28     1 
   19    20     1 
   19    21     1 
   19    22     1 
   22    23     1 
   22    24     1 
   22    25     1 
   25    26     1 
   25    27     1 
   28    29     1 
   28    30     1 
   30    31     1 
   30    32     1 
   32    33     1 
   32    34     1 
   32    52     1 
   34    35     1 
   34    36     1 
   34    37     1 
   37    38     1 
   37    43     1 
   38    39     1 
   38    40     1 
   40    41     1 
   40    42     1 
   42    43     1 
   42    48     1 
   43    44     1 
   44    45     1 
   44    46     1 
   46    47     1 
   46    50     1 
   48    49     1 
   48    50     1 
   50    51     1 
   52    53     1 
   52    54     1 
   54    55     1 
   54    56     1 
   56    57     1 
   56    58     1 
   56    62     1 
   58    59     1 
   58    60     1 
   58    61     1 
   62    63     1 
   62    64     1 
   64    65     1 
   64    66     1 
   66    67     1 
   66    68     1 
   66    77     1 
   68    69     1 
   68    70     1 
   68    71     1 
   71    72     1 
   71    73     1 
   71    74     1 
   74    75     1 
   74    76     1 
   77    78     1 
   77    79     1 
   79    80     1 
   79    81     1 
   81    82     1 
   81    83     1 
   81    84     1 
   84    85     1 
   84    86     1 

[ pairs ]
;  ai    aj funct            c0            c1            c2            c3
    1     8     1 
    1     9     1 
    1    10     1 
    1    14     1 
    1    15     1 
    2     6     1 
    2     7     1 
    2    13     1 
    3     6     1 
    3     7     1 
    3    13     1 
    4     6     1 
    4     7     1 
    4    13     1 
    5    11     1 
    5    12     1 
    5    16     1 
    5    17     1 
    6     8     1 
    6     9     1 
    6    10     1 
    6    14     1 
    6    15     1 
    7    14     1 
    7    15     1 
    8    11     1 
    8    12     1 
    8    13     1 
    9    11     1 
    9    12     1 
    9    13     1 
   10    13     1 
   13    18     1 
   13    19     1 
   13    28     1 
   14    16     1 
   14    17     1 
   15    20     1 
   15    21     1 
   15    22     1 
   15    29     1 
   15    30     1 
   16    18     1 
   16    19     1 
   16    28     1 
   17    23     1 
   17    24     1 
   17    25     1 
   17    31     1 
   17    32     1 
   18    20     1 
   18    21     1 
   18    22     1 
   18    29     1 
   18    30     1 
   19    26     1 
   19    27     1 
   19    29     1 
   19    30     1 
   20    23     1 
   20    24     1 
   20    25     1 
   20    28     1 
   21    23     1 
   21    24     1 
   21    25     1 
   21    28     1 
   22    28     1 
   23    26     1 
   23    27     1 
   24    26     1 
   24    27     1 
   28    33     1 
   28    34     1 
   28    52     1 
   29    31     1 
   29    32     1 
   30    35     1 
   30    36     1 
   30    37     1 
   30    53     1 
   30    54     1 
   31    33     1 
   31    34     1 
   31    52     1 
   32    38     1 
   32    43     1 
   32    55     1 
   32    56     1 
   33    35     1 
   33    36     1 
   33    37     1 
   33    53     1 
   33    54     1 
   34    39     1 
   34    40     1 
   34    42     1 
   34    44     1 
   34    53     1 
   34    54     1 
   35    38     1 
   35    43     1 
   35    52     1 
   36    38     1 
   36    43     1 
   36    52     1 
   37    41     1 
   37    45     1 
   37    46     1 
   37    48     1 
   37    52     1 
   38    44     1 
   38    48     1 
   39    41     1 
   39    42     1 
   39    43     1 
   40    44     1 
   40    49     1 
   40    50     1 
   41    43     1 
   41    48     1 
   42    45     1 
   42    46     1 
   42    51     1 
   43    47     1 
   43    49     1 
   43    50     1 
   44    48     1 
   44    51     1 
   45    47     1 
   45    50     1 
   46    49     1 
   47    48     1 
   47    51     1 
   49    51     1 
   52    57     1 
   52    58     1 
   52    62     1 
   53    55     1 
   53    56     1 
   54    59     1 
   54    60     1 
   54    61     1 
   54    63     1 
   54    64     1 
   55    57     1 
   55    58     1 
   55    62     1 
   56    65     1 
   56    66     1 
   57    59     1 
   57    60     1 
   57    61     1 
   57    63     1 
   57    64     1 
   58    63     1 
   58    64     1 
   59    62     1 
   60    62     1 
   61    62     1 
   62    67     1 
   62    68     1 
   62    77     1 
   63    65     1 
   63    66     1 
   64    69     1 
   64    70     1 
   64    71     1 
   64    78     1 
   64    79     1 
   65    67     1 
   65    68     1 
   65    77     1 
   66    72     1 
   66    73     1 
   66    74     1 
   66    80     1 
   66    81     1 
   67    69     1 
   67    70     1 
   67    71     1 
   67    78     1 
   67    79     1 
   68    75     1 
   68    76     1 
   68    78     1 
   68    79     1 
   69    72     1 
   69    73     1 
   69    74     1 
   69    77     1 
   70    72     1 
   70    73     1 
   70    74     1 
   70    77     1 
   71    77     1 
   72    75     1 
   72    76     1 
   73    75     1 
   73    76     1 
   77    82     1 
   77    83     1 
   77    84     1 
   78    80     1 
   78    81     1 
   79    85     1 
   79    86     1 
   80    82     1 
   80    83     1 
   80    84     1 
   82    85     1 
   82    86     1 
   83    85     1 
   83    86     1 

[ angles ]
;  ai    aj    ak funct            c0            c1            c2            c3
    2     1     3     5 
    2     1     4     5 
    2     1     5     5 
    3     1     4     5 
    3     1     5     5 
    4     1     5     5 
    1     5     6     5 
    1     5     7     5 
    1     5    13     5 
    6     5     7     5 
    6     5    13     5 
    7     5    13     5 
    5     7     8     5 
    5     7     9     5 
    5     7    10     5 
    8     7     9     5 
    8     7    10     5 
    9     7    10     5 
    7    10    11     5 
    7    10    12     5 
   11    10    12     5 
    5    13    14     5 
    5    13    15     5 
   14    13    15     5 
   13    15    16     5 
   13    15    17     5 
   16    15    17     5 
   15    17    18     5 
   15    17    19     5 
   15    17    28     5 
   18    17    19     5 
   18    17    28     5 
   19    17    28     5 
   17    19    20     5 
   17    19    21     5 
   17    19    22     5 
   20    19    21     5 
   20    19    22     5 
   21    19    22     5 
   19    22    23     5 
   19    22    24     5 
   19    22    25     5 
   23    22    24     5 
   23    22    25     5 
   24    22    25     5 
   22    25    26     5 
   22    25    27     5 
   26    25    27     5 
   17    28    29     5 
   17    28    30     5 
   29    28    30     5 
   28    30    31     5 
   28    30    32     5 
   31    30    32     5 
   30    32    33     5 
   30    32    34     5 
   30    32    52     5 
   33    32    34     5 
   33    32    52     5 
   34    32    52     5 
   32    34    35     5 
   32    34    36     5 
   32    34    37     5 
   35    34    36     5 
   35    34    37     5 
   36    34    37     5 
   34    37    38     5 
   34    37    43     5 
   38    37    43     5 
   37    38    39     5 
   37    38    40     5 
   39    38    40     5 
   38    40    41     5 
   38    40    42     5 
   41    40    42     5 
   40    42    43     5 
   40    42    48     5 
   43    42    48     5 
   37    43    42     5 
   37    43    44     5 
   42    43    44     5 
   43    44    45     5 
   43    44    46     5 
   45    44    46     5 
   44    46    47     5 
   44    46    50     5 
   47    46    50     5 
   42    48    49     5 
   42    48    50     5 
   49    48    50     5 
   46    50    48     5 
   46    50    51     5 
   48    50    51     5 
   32    52    53     5 
   32    52    54     5 
   53    52    54     5 
   52    54    55     5 
   52    54    56     5 
   55    54    56     5 
   54    56    57     5 
   54    56    58     5 
   54    56    62     5 
   57    56    58     5 
   57    56    62     5 
   58    56    62     5 
   56    58    59     5 
   56    58    60     5 
   56    58    61     5 
   59    58    60     5 
   59    58    61     5 
   60    58    61     5 
   56    62    63     5 
   56    62    64     5 
   63    62    64     5 
   62    64    65     5 
   62    64    66     5 
   65    64    66     5 
   64    66    67     5 
   64    66    68     5 
   64    66    77     5 
   67    66    68     5 
   67    66    77     5 
   68    66    77     5 
   66    68    69     5 
   66    68    70     5 
   66    68    71     5 
   69    68    70     5 
   69    68    71     5 
   70    68    71     5 
   68    71    72     5 
   68    71    73     5 
   68    71    74     5 
   72    71    73     5 
   72    71    74     5 
   73    71    74     5 
   71    74    75     5 
   71    74    76     5 
   75    74    76     5 
   66    77    78     5 
   66    77    79     5 
   78    77    79     5 
   77    79    80     5 
   77    79    81     5 
   80    79    81     5 
   79    81    82     5 
   79    81    83     5 
   79    81    84     5 
   82    81    83     5 
   82    81    84     5 
   83    81    84     5 
   81    84    85     5 
   81    84    86     5 
   85    84    86     5 

[ dihedrals ]
;  ai    aj    ak    al funct            c0            c1            c2            c3            c4            c5
    2     1     5     6     9 
    2     1     5     7     9 
    2     1     5    13     9 
    3     1     5     6     9 
    3     1     5     7     9 
    3     1     5    13     9 
    4     1     5     6     9 
    4     1     5     7     9 
    4     1     5    13     9 
    1     5     7     8     9 
    1     5     7     9     9 
    1     5     7    10     9 
    6     5     7     8     9 
    6     5     7     9     9 
    6     5     7    10     9 
   13     5     7     8     9 
   13     5     7     9     9 
   13     5     7    10     9 
    1     5    13    14     9 
    1     5    13    15     9 
    6     5    13    14     9 
    6     5    13    15     9 
    7     5    13    14     9 
    7     5    13    15     9 
    5     7    10    11     9 
    5     7    10    12     9 
    8     7    10    11     9 
    8     7    10    12     9 
    9     7    10    11     9 
    9     7    10    12     9 
    5    13    15    16     9 
    5    13    15    17     9 
   14    13    15    16     9 
   14    13    15    17     9 
   13    15    17    18     9 
   13    15    17    19     9 
   13    15    17    28     9 
   16    15    17    18     9 
   16    15    17    19     9 
   16    15    17    28     9 
   15    17    19    20     9 
   15    17    19    21     9 
   15    17    19    22     9 
   18    17    19    20     9 
   18    17    19    21     9 
   18    17    19    22     9 
   28    17    19    20     9 
   28    17    19    21     9 
   28    17    19    22     9 
   15    17    28    29     9 
   15    17    28    30     9 
   18    17    28    29     9 
   18    17    28    30     9 
   19    17    28    29     9 
   19    17    28    30     9 
   17    19    22    23     9 
   17    19    22    24     9 
   17    19    22    25     9 
   20    19    22    23     9 
   20    19    22    24     9 
   20    19    22    25     9 
   21    19    22    23     9 
   21    19    22    24     9 
   21    19    22    25     9 
   19    22    25    26     9 
   19    22    25    27     9 
   23    22    25    26     9 
   23    22    25    27     9 
   24    22    25    26     9 
   24    22    25    27     9 
   17    28    30    31     9 
   17    28    30    32     9 
   29    28    30    31     9 
   29    28    30    32     9 
   28    30    32    33     9 
   28    30    32    34     9 
   28    30    32    52     9 
   31    30    32    33     9 
   31    30    32    34     9 
   31    30    32    52     9 
   30    32    34    35     9 
   30    32    34    36     9 
   30    32    34    37     9 
   33    32    34    35     9 
   33    32    34    36     9 
   33    32    34    37     9 
   52    32    34    35     9 
   52    32    34    36     9 
   52    32    34    37     9 
   30    32    52    53     9 
   30    32    52    54     9 
   33    32    52    53     9 
   33    32    52    54     9 
   34    32    52    53     9 
   34    32    52    54     9 
   32    34    37    38     9 
   32    34    37    43     9 
   35    34    37    38     9 
   35    34    37    43     9 
   36    34    37    38     9 
   36    34    37    43     9 
   34    37    38    39     9 
   34    37    38    40     9 
   43    37    38    39     9 
   43    37    38    40     9 
   34    37    43    42     9 
   34    37    43    44     9 
   38    37    43    42     9 
   38    37    43    44     9 
   37    38    40    41     9 
   37    38    40    42     9 
   39    38    40    41     9 
   39    38    40    42     9 
   38    40    42    43     9 
   38    40    42    48     9 
   41    40    42    43     9 
   41    40    42    48     9 
   40    42    43    37     9 
   40    42    43    44     9 
   48    42    43    37     9 
   48    42    43    44     9 
   40    42    48    49     9 
   40    42    48    50     9 
   43    42    48    49     9 
   43    42    48    50     9 
   37    43    44    45     9 
   37    43    44    46     9 
   42    43    44    45     9 
   42    43    44    46     9 
   43    44    46    47     9 
   43    44    46    50     9 
   45    44    46    47     9 
   45    44    46    50     9 
   44    46    50    48     9 
   44    46    50    51     9 
   47    46    50    48     9 
   47    46    50    51     9 
   42    48    50    46     9 
   42    48    50    51     9 
   49    48    50    46     9 
   49    48    50    51     9 
   32    52    54    55     9 
   32    52    54    56     9 
   53    52    54    55     9 
   53    52    54    56     9 
   52    54    56    57     9 
   52    54    56    58     9 
   52    54    56    62     9 
   55    54    56    57     9 
   55    54    56    58     9 
   55    54    56    62     9 
   54    56    58    59     9 
   54    56    58    60     9 
   54    56    58    61     9 
   57    56    58    59     9 
   57    56    58    60     9 
   57    56    58    61     9 
   62    56    58    59     9 
   62    56    58    60     9 
   62    56    58    61     9 
   54    56    62    63     9 
   54    56    62    64     9 
   57    56    62    63     9 
   57    56    62    64     9 
   58    56    62    63     9 
   58    56    62    64     9 
   56    62    64    65     9 
   56    62    64    66     9 
   63    62    64    65     9 
   63    62    64    66     9 
   62    64    66    67     9 
   62    64    66    68     9 
   62    64    66    77     9 
   65    64    66    67     9 
   65    64    66    68     9 
   65    64    66    77     9 
   64    66    68    69     9 
   64    66    68    70     9 
   64    66    68    71     9 
   67    66    68    69     9 
   67    66    68    70     9 
   67    66    68    71     9 
   77    66    68    69     9 
   77    66    68    70     9 
   77    66    68    71     9 
   64    66    77    78     9 
   64    66    77    79     9 
   67    66    77    78     9 
   67    66    77    79     9 
   68    66    77    78     9 
   68    66    77    79     9 
   66    68    71    72     9 
   66    68    71    73     9 
   66    68    71    74     9 
   69    68    71    72     9 
   69    68    71    73     9 
   69    68    71    74     9 
   70    68    71    72     9 
   70    68    71    73     9 
   70    68    71    74     9 
   68    71    74    75     9 
   68    71    74    76     9 
   72    71    74    75     9 
   72    71    74    76     9 
   73    71    74    75     9 
   73    71    74    76     9 
   66    77    79    80     9 
   66    77    79    81     9 
   78    77    79    80     9 
   78    77    79    81     9 
   77    79    81    82     9 
   77    79    81    83     9 
   77    79    81    84     9 
   80    79    81    82     9 
   80    79    81    83     9 
   80    79    81    84     9 
   79    81    84    85     9 
   79    81    84    86     9 
   82    81    84    85     9 
   82    81    84    86     9 
   83    81    84    85     9 
   83    81    84    86     9 

[ dihedrals ]
;  ai    aj    ak    al funct            c0            c1            c2            c3
   10     7    12    11     2 
   13     5    15    14     2 
   15    13    17    16     2 
   25    22    27    26     2 
   28    17    30    29     2 
   30    28    32    31     2 
   52    32    54    53     2 
   54    52    56    55     2 
   62    56    64    63     2 
   64    62    66    65     2 
   74    71    76    75     2 
   77    66    79    78     2 
   79    77    81    80     2 
   84    81    86    85     2 

[ cmap ]
;  ai    aj    ak    al    am funct
   13    15    17    28    30     1 
   28    30    32    52    54     1 
   52    54    56    62    64     1 
   62    64    66    77    79     1 

; Include Position restraint file
#ifdef POSRES
#include "posre_Protein_chain_B.itp"
#endif

