;
;	File 'topol_Protein_chain_B.itp' was generated
;	By user: unknown (1000)
;	On host: keke
;	At date: Thu Sep 24 17:24:56 2026
;
;	This is a include topology file
;
;	Created by:
;	                    :-) GROMACS - gmx pdb2gmx, 2021.6 (-:
;	
;	Executable:   /usr/local/gromacs/bin/gmx
;	Data prefix:  /usr/local/gromacs
;	Working dir:  /home/zml/MD_6WJL/complex_762
;	Command line:
;	  gmx pdb2gmx -f 762_complex.pdb -o 762_processed.gro -ignh
;	Force field was read from the standard GROMACS share directory.
;

[ moleculetype ]
; Name            nrexcl
Protein_chain_B     3

[ atoms ]
;   nr       type  resnr residue  atom   cgnr     charge       mass  typeB    chargeB      massB
; residue   1 GLY rtp GLY  q +1.0
     1        NH3      1    GLY      N      1       -0.3     14.007
     2         HC      1    GLY     H1      2       0.33      1.008
     3         HC      1    GLY     H2      3       0.33      1.008
     4         HC      1    GLY     H3      4       0.33      1.008
     5        CT2      1    GLY     CA      5       0.13     12.011
     6         HB      1    GLY    HA1      6       0.09      1.008
     7         HB      1    GLY    HA2      7       0.09      1.008
     8          C      1    GLY      C      8       0.51     12.011
     9          O      1    GLY      O      9      -0.51     15.999   ; qtot 1
; residue   2 ALA rtp ALA  q  0.0
    10        NH1      2    ALA      N     10      -0.47     14.007
    11          H      2    ALA     HN     11       0.31      1.008
    12        CT1      2    ALA     CA     12       0.07     12.011
    13         HB      2    ALA     HA     13       0.09      1.008
    14        CT3      2    ALA     CB     14      -0.27     12.011
    15         HA      2    ALA    HB1     15       0.09      1.008
    16         HA      2    ALA    HB2     16       0.09      1.008
    17         HA      2    ALA    HB3     17       0.09      1.008
    18          C      2    ALA      C     18       0.51     12.011
    19          O      2    ALA      O     19      -0.51     15.999   ; qtot 1
; residue   3 LEU rtp LEU  q  0.0
    20        NH1      3    LEU      N     20      -0.47     14.007
    21          H      3    LEU     HN     21       0.31      1.008
    22        CT1      3    LEU     CA     22       0.07     12.011
    23         HB      3    LEU     HA     23       0.09      1.008
    24        CT2      3    LEU     CB     24      -0.18     12.011
    25         HA      3    LEU    HB1     25       0.09      1.008
    26         HA      3    LEU    HB2     26       0.09      1.008
    27        CT1      3    LEU     CG     27      -0.09     12.011
    28         HA      3    LEU     HG     28       0.09      1.008
    29        CT3      3    LEU    CD1     29      -0.27     12.011
    30         HA      3    LEU   HD11     30       0.09      1.008
    31         HA      3    LEU   HD12     31       0.09      1.008
    32         HA      3    LEU   HD13     32       0.09      1.008
    33        CT3      3    LEU    CD2     33      -0.27     12.011
    34         HA      3    LEU   HD21     34       0.09      1.008
    35         HA      3    LEU   HD22     35       0.09      1.008
    36         HA      3    LEU   HD23     36       0.09      1.008
    37          C      3    LEU      C     37       0.51     12.011
    38          O      3    LEU      O     38      -0.51     15.999   ; qtot 1
; residue   4 GLY rtp GLY  q  0.0
    39        NH1      4    GLY      N     39      -0.47     14.007
    40          H      4    GLY     HN     40       0.31      1.008
    41        CT2      4    GLY     CA     41      -0.02     12.011
    42         HB      4    GLY    HA1     42       0.09      1.008
    43         HB      4    GLY    HA2     43       0.09      1.008
    44          C      4    GLY      C     44       0.51     12.011
    45          O      4    GLY      O     45      -0.51     15.999   ; qtot 1
; residue   5 TRP rtp TRP  q  0.0
    46        NH1      5    TRP      N     46      -0.47     14.007
    47          H      5    TRP     HN     47       0.31      1.008
    48        CT1      5    TRP     CA     48       0.07     12.011
    49         HB      5    TRP     HA     49       0.09      1.008
    50        CT2      5    TRP     CB     50      -0.18     12.011
    51         HA      5    TRP    HB1     51       0.09      1.008
    52         HA      5    TRP    HB2     52       0.09      1.008
    53         CY      5    TRP     CG     53      -0.03     12.011
    54         CA      5    TRP    CD1     54      0.035     12.011
    55         HP      5    TRP    HD1     55      0.115      1.008
    56         NY      5    TRP    NE1     56      -0.61     14.007
    57          H      5    TRP    HE1     57       0.38      1.008
    58        CPT      5    TRP    CE2     58       0.13     12.011
    59        CPT      5    TRP    CD2     59      -0.02     12.011
    60         CA      5    TRP    CE3     60     -0.115     12.011
    61         HP      5    TRP    HE3     61      0.115      1.008
    62         CA      5    TRP    CZ3     62     -0.115     12.011
    63         HP      5    TRP    HZ3     63      0.115      1.008
    64         CA      5    TRP    CZ2     64     -0.115     12.011
    65         HP      5    TRP    HZ2     65      0.115      1.008
    66         CA      5    TRP    CH2     66     -0.115     12.011
    67         HP      5    TRP    HH2     67      0.115      1.008
    68          C      5    TRP      C     68       0.51     12.011
    69          O      5    TRP      O     69      -0.51     15.999   ; qtot 1
; residue   6 GLU rtp GLU  q -2.0
    70        NH1      6    GLU      N     70      -0.47     14.007
    71          H      6    GLU     HN     71       0.31      1.008
    72        CT1      6    GLU     CA     72       0.07     12.011
    73         HB      6    GLU     HA     73       0.09      1.008
    74        CT2      6    GLU     CB     74      -0.18     12.011
    75         HA      6    GLU    HB1     75       0.09      1.008
    76         HA      6    GLU    HB2     76       0.09      1.008
    77        CT2      6    GLU     CG     77      -0.28     12.011
    78         HA      6    GLU    HG1     78       0.09      1.008
    79         HA      6    GLU    HG2     79       0.09      1.008
    80         CC      6    GLU     CD     80       0.62     12.011
    81         OC      6    GLU    OE1     81      -0.76     15.999
    82         OC      6    GLU    OE2     82      -0.76     15.999
    83         CC      6    GLU      C     83       0.34     12.011
    84         OC      6    GLU    OT1     84      -0.67    15.9994
    85         OC      6    GLU    OT2     85      -0.67    15.9994   ; qtot -1

[ bonds ]
;  ai    aj funct            c0            c1            c2            c3
    1     2     1 
    1     3     1 
    1     4     1 
    1     5     1 
    5     6     1 
    5     7     1 
    5     8     1 
    8     9     1 
    8    10     1 
   10    11     1 
   10    12     1 
   12    13     1 
   12    14     1 
   12    18     1 
   14    15     1 
   14    16     1 
   14    17     1 
   18    19     1 
   18    20     1 
   20    21     1 
   20    22     1 
   22    23     1 
   22    24     1 
   22    37     1 
   24    25     1 
   24    26     1 
   24    27     1 
   27    28     1 
   27    29     1 
   27    33     1 
   29    30     1 
   29    31     1 
   29    32     1 
   33    34     1 
   33    35     1 
   33    36     1 
   37    38     1 
   37    39     1 
   39    40     1 
   39    41     1 
   41    42     1 
   41    43     1 
   41    44     1 
   44    45     1 
   44    46     1 
   46    47     1 
   46    48     1 
   48    49     1 
   48    50     1 
   48    68     1 
   50    51     1 
   50    52     1 
   50    53     1 
   53    54     1 
   53    59     1 
   54    55     1 
   54    56     1 
   56    57     1 
   56    58     1 
   58    59     1 
   58    64     1 
   59    60     1 
   60    61     1 
   60    62     1 
   62    63     1 
   62    66     1 
   64    65     1 
   64    66     1 
   66    67     1 
   68    69     1 
   68    70     1 
   70    71     1 
   70    72     1 
   72    73     1 
   72    74     1 
   72    83     1 
   74    75     1 
   74    76     1 
   74    77     1 
   77    78     1 
   77    79     1 
   77    80     1 
   80    81     1 
   80    82     1 
   83    84     1 
   83    85     1 

[ pairs ]
;  ai    aj funct            c0            c1            c2            c3
    1     9     1 
    1    10     1 
    2     6     1 
    2     7     1 
    2     8     1 
    3     6     1 
    3     7     1 
    3     8     1 
    4     6     1 
    4     7     1 
    4     8     1 
    5    11     1 
    5    12     1 
    6     9     1 
    6    10     1 
    7     9     1 
    7    10     1 
    8    13     1 
    8    14     1 
    8    18     1 
    9    11     1 
    9    12     1 
   10    15     1 
   10    16     1 
   10    17     1 
   10    19     1 
   10    20     1 
   11    13     1 
   11    14     1 
   11    18     1 
   12    21     1 
   12    22     1 
   13    15     1 
   13    16     1 
   13    17     1 
   13    19     1 
   13    20     1 
   14    19     1 
   14    20     1 
   15    18     1 
   16    18     1 
   17    18     1 
   18    23     1 
   18    24     1 
   18    37     1 
   19    21     1 
   19    22     1 
   20    25     1 
   20    26     1 
   20    27     1 
   20    38     1 
   20    39     1 
   21    23     1 
   21    24     1 
   21    37     1 
   22    28     1 
   22    29     1 
   22    33     1 
   22    40     1 
   22    41     1 
   23    25     1 
   23    26     1 
   23    27     1 
   23    38     1 
   23    39     1 
   24    30     1 
   24    31     1 
   24    32     1 
   24    34     1 
   24    35     1 
   24    36     1 
   24    38     1 
   24    39     1 
   25    28     1 
   25    29     1 
   25    33     1 
   25    37     1 
   26    28     1 
   26    29     1 
   26    33     1 
   26    37     1 
   27    37     1 
   28    30     1 
   28    31     1 
   28    32     1 
   28    34     1 
   28    35     1 
   28    36     1 
   29    34     1 
   29    35     1 
   29    36     1 
   30    33     1 
   31    33     1 
   32    33     1 
   37    42     1 
   37    43     1 
   37    44     1 
   38    40     1 
   38    41     1 
   39    45     1 
   39    46     1 
   40    42     1 
   40    43     1 
   40    44     1 
   41    47     1 
   41    48     1 
   42    45     1 
   42    46     1 
   43    45     1 
   43    46     1 
   44    49     1 
   44    50     1 
   44    68     1 
   45    47     1 
   45    48     1 
   46    51     1 
   46    52     1 
   46    53     1 
   46    69     1 
   46    70     1 
   47    49     1 
   47    50     1 
   47    68     1 
   48    54     1 
   48    59     1 
   48    71     1 
   48    72     1 
   49    51     1 
   49    52     1 
   49    53     1 
   49    69     1 
   49    70     1 
   50    55     1 
   50    56     1 
   50    58     1 
   50    60     1 
   50    69     1 
   50    70     1 
   51    54     1 
   51    59     1 
   51    68     1 
   52    54     1 
   52    59     1 
   52    68     1 
   53    57     1 
   53    61     1 
   53    62     1 
   53    64     1 
   53    68     1 
   54    60     1 
   54    64     1 
   55    57     1 
   55    58     1 
   55    59     1 
   56    60     1 
   56    65     1 
   56    66     1 
   57    59     1 
   57    64     1 
   58    61     1 
   58    62     1 
   58    67     1 
   59    63     1 
   59    65     1 
   59    66     1 
   60    64     1 
   60    67     1 
   61    63     1 
   61    66     1 
   62    65     1 
   63    64     1 
   63    67     1 
   65    67     1 
   68    73     1 
   68    74     1 
   68    83     1 
   69    71     1 
   69    72     1 
   70    75     1 
   70    76     1 
   70    77     1 
   70    84     1 
   70    85     1 
   71    73     1 
   71    74     1 
   71    83     1 
   72    78     1 
   72    79     1 
   72    80     1 
   73    75     1 
   73    76     1 
   73    77     1 
   73    84     1 
   73    85     1 
   74    81     1 
   74    82     1 
   74    84     1 
   74    85     1 
   75    78     1 
   75    79     1 
   75    80     1 
   75    83     1 
   76    78     1 
   76    79     1 
   76    80     1 
   76    83     1 
   77    83     1 
   78    81     1 
   78    82     1 
   79    81     1 
   79    82     1 

[ angles ]
;  ai    aj    ak funct            c0            c1            c2            c3
    2     1     3     5 
    2     1     4     5 
    2     1     5     5 
    3     1     4     5 
    3     1     5     5 
    4     1     5     5 
    1     5     6     5 
    1     5     7     5 
    1     5     8     5 
    6     5     7     5 
    6     5     8     5 
    7     5     8     5 
    5     8     9     5 
    5     8    10     5 
    9     8    10     5 
    8    10    11     5 
    8    10    12     5 
   11    10    12     5 
   10    12    13     5 
   10    12    14     5 
   10    12    18     5 
   13    12    14     5 
   13    12    18     5 
   14    12    18     5 
   12    14    15     5 
   12    14    16     5 
   12    14    17     5 
   15    14    16     5 
   15    14    17     5 
   16    14    17     5 
   12    18    19     5 
   12    18    20     5 
   19    18    20     5 
   18    20    21     5 
   18    20    22     5 
   21    20    22     5 
   20    22    23     5 
   20    22    24     5 
   20    22    37     5 
   23    22    24     5 
   23    22    37     5 
   24    22    37     5 
   22    24    25     5 
   22    24    26     5 
   22    24    27     5 
   25    24    26     5 
   25    24    27     5 
   26    24    27     5 
   24    27    28     5 
   24    27    29     5 
   24    27    33     5 
   28    27    29     5 
   28    27    33     5 
   29    27    33     5 
   27    29    30     5 
   27    29    31     5 
   27    29    32     5 
   30    29    31     5 
   30    29    32     5 
   31    29    32     5 
   27    33    34     5 
   27    33    35     5 
   27    33    36     5 
   34    33    35     5 
   34    33    36     5 
   35    33    36     5 
   22    37    38     5 
   22    37    39     5 
   38    37    39     5 
   37    39    40     5 
   37    39    41     5 
   40    39    41     5 
   39    41    42     5 
   39    41    43     5 
   39    41    44     5 
   42    41    43     5 
   42    41    44     5 
   43    41    44     5 
   41    44    45     5 
   41    44    46     5 
   45    44    46     5 
   44    46    47     5 
   44    46    48     5 
   47    46    48     5 
   46    48    49     5 
   46    48    50     5 
   46    48    68     5 
   49    48    50     5 
   49    48    68     5 
   50    48    68     5 
   48    50    51     5 
   48    50    52     5 
   48    50    53     5 
   51    50    52     5 
   51    50    53     5 
   52    50    53     5 
   50    53    54     5 
   50    53    59     5 
   54    53    59     5 
   53    54    55     5 
   53    54    56     5 
   55    54    56     5 
   54    56    57     5 
   54    56    58     5 
   57    56    58     5 
   56    58    59     5 
   56    58    64     5 
   59    58    64     5 
   53    59    58     5 
   53    59    60     5 
   58    59    60     5 
   59    60    61     5 
   59    60    62     5 
   61    60    62     5 
   60    62    63     5 
   60    62    66     5 
   63    62    66     5 
   58    64    65     5 
   58    64    66     5 
   65    64    66     5 
   62    66    64     5 
   62    66    67     5 
   64    66    67     5 
   48    68    69     5 
   48    68    70     5 
   69    68    70     5 
   68    70    71     5 
   68    70    72     5 
   71    70    72     5 
   70    72    73     5 
   70    72    74     5 
   70    72    83     5 
   73    72    74     5 
   73    72    83     5 
   74    72    83     5 
   72    74    75     5 
   72    74    76     5 
   72    74    77     5 
   75    74    76     5 
   75    74    77     5 
   76    74    77     5 
   74    77    78     5 
   74    77    79     5 
   74    77    80     5 
   78    77    79     5 
   78    77    80     5 
   79    77    80     5 
   77    80    81     5 
   77    80    82     5 
   81    80    82     5 
   72    83    84     5 
   72    83    85     5 
   84    83    85     5 

[ dihedrals ]
;  ai    aj    ak    al funct            c0            c1            c2            c3            c4            c5
    2     1     5     6     9 
    2     1     5     7     9 
    2     1     5     8     9 
    3     1     5     6     9 
    3     1     5     7     9 
    3     1     5     8     9 
    4     1     5     6     9 
    4     1     5     7     9 
    4     1     5     8     9 
    1     5     8     9     9 
    1     5     8    10     9 
    6     5     8     9     9 
    6     5     8    10     9 
    7     5     8     9     9 
    7     5     8    10     9 
    5     8    10    11     9 
    5     8    10    12     9 
    9     8    10    11     9 
    9     8    10    12     9 
    8    10    12    13     9 
    8    10    12    14     9 
    8    10    12    18     9 
   11    10    12    13     9 
   11    10    12    14     9 
   11    10    12    18     9 
   10    12    14    15     9 
   10    12    14    16     9 
   10    12    14    17     9 
   13    12    14    15     9 
   13    12    14    16     9 
   13    12    14    17     9 
   18    12    14    15     9 
   18    12    14    16     9 
   18    12    14    17     9 
   10    12    18    19     9 
   10    12    18    20     9 
   13    12    18    19     9 
   13    12    18    20     9 
   14    12    18    19     9 
   14    12    18    20     9 
   12    18    20    21     9 
   12    18    20    22     9 
   19    18    20    21     9 
   19    18    20    22     9 
   18    20    22    23     9 
   18    20    22    24     9 
   18    20    22    37     9 
   21    20    22    23     9 
   21    20    22    24     9 
   21    20    22    37     9 
   20    22    24    25     9 
   20    22    24    26     9 
   20    22    24    27     9 
   23    22    24    25     9 
   23    22    24    26     9 
   23    22    24    27     9 
   37    22    24    25     9 
   37    22    24    26     9 
   37    22    24    27     9 
   20    22    37    38     9 
   20    22    37    39     9 
   23    22    37    38     9 
   23    22    37    39     9 
   24    22    37    38     9 
   24    22    37    39     9 
   22    24    27    28     9 
   22    24    27    29     9 
   22    24    27    33     9 
   25    24    27    28     9 
   25    24    27    29     9 
   25    24    27    33     9 
   26    24    27    28     9 
   26    24    27    29     9 
   26    24    27    33     9 
   24    27    29    30     9 
   24    27    29    31     9 
   24    27    29    32     9 
   28    27    29    30     9 
   28    27    29    31     9 
   28    27    29    32     9 
   33    27    29    30     9 
   33    27    29    31     9 
   33    27    29    32     9 
   24    27    33    34     9 
   24    27    33    35     9 
   24    27    33    36     9 
   28    27    33    34     9 
   28    27    33    35     9 
   28    27    33    36     9 
   29    27    33    34     9 
   29    27    33    35     9 
   29    27    33    36     9 
   22    37    39    40     9 
   22    37    39    41     9 
   38    37    39    40     9 
   38    37    39    41     9 
   37    39    41    42     9 
   37    39    41    43     9 
   37    39    41    44     9 
   40    39    41    42     9 
   40    39    41    43     9 
   40    39    41    44     9 
   39    41    44    45     9 
   39    41    44    46     9 
   42    41    44    45     9 
   42    41    44    46     9 
   43    41    44    45     9 
   43    41    44    46     9 
   41    44    46    47     9 
   41    44    46    48     9 
   45    44    46    47     9 
   45    44    46    48     9 
   44    46    48    49     9 
   44    46    48    50     9 
   44    46    48    68     9 
   47    46    48    49     9 
   47    46    48    50     9 
   47    46    48    68     9 
   46    48    50    51     9 
   46    48    50    52     9 
   46    48    50    53     9 
   49    48    50    51     9 
   49    48    50    52     9 
   49    48    50    53     9 
   68    48    50    51     9 
   68    48    50    52     9 
   68    48    50    53     9 
   46    48    68    69     9 
   46    48    68    70     9 
   49    48    68    69     9 
   49    48    68    70     9 
   50    48    68    69     9 
   50    48    68    70     9 
   48    50    53    54     9 
   48    50    53    59     9 
   51    50    53    54     9 
   51    50    53    59     9 
   52    50    53    54     9 
   52    50    53    59     9 
   50    53    54    55     9 
   50    53    54    56     9 
   59    53    54    55     9 
   59    53    54    56     9 
   50    53    59    58     9 
   50    53    59    60     9 
   54    53    59    58     9 
   54    53    59    60     9 
   53    54    56    57     9 
   53    54    56    58     9 
   55    54    56    57     9 
   55    54    56    58     9 
   54    56    58    59     9 
   54    56    58    64     9 
   57    56    58    59     9 
   57    56    58    64     9 
   56    58    59    53     9 
   56    58    59    60     9 
   64    58    59    53     9 
   64    58    59    60     9 
   56    58    64    65     9 
   56    58    64    66     9 
   59    58    64    65     9 
   59    58    64    66     9 
   53    59    60    61     9 
   53    59    60    62     9 
   58    59    60    61     9 
   58    59    60    62     9 
   59    60    62    63     9 
   59    60    62    66     9 
   61    60    62    63     9 
   61    60    62    66     9 
   60    62    66    64     9 
   60    62    66    67     9 
   63    62    66    64     9 
   63    62    66    67     9 
   58    64    66    62     9 
   58    64    66    67     9 
   65    64    66    62     9 
   65    64    66    67     9 
   48    68    70    71     9 
   48    68    70    72     9 
   69    68    70    71     9 
   69    68    70    72     9 
   68    70    72    73     9 
   68    70    72    74     9 
   68    70    72    83     9 
   71    70    72    73     9 
   71    70    72    74     9 
   71    70    72    83     9 
   70    72    74    75     9 
   70    72    74    76     9 
   70    72    74    77     9 
   73    72    74    75     9 
   73    72    74    76     9 
   73    72    74    77     9 
   83    72    74    75     9 
   83    72    74    76     9 
   83    72    74    77     9 
   70    72    83    84     9 
   70    72    83    85     9 
   73    72    83    84     9 
   73    72    83    85     9 
   74    72    83    84     9 
   74    72    83    85     9 
   72    74    77    78     9 
   72    74    77    79     9 
   72    74    77    80     9 
   75    74    77    78     9 
   75    74    77    79     9 
   75    74    77    80     9 
   76    74    77    78     9 
   76    74    77    79     9 
   76    74    77    80     9 
   74    77    80    81     9 
   74    77    80    82     9 
   78    77    80    81     9 
   78    77    80    82     9 
   79    77    80    81     9 
   79    77    80    82     9 

[ dihedrals ]
;  ai    aj    ak    al funct            c0            c1            c2            c3
    8     5    10     9     2 
   10     8    12    11     2 
   18    12    20    19     2 
   20    18    22    21     2 
   37    22    39    38     2 
   39    37    41    40     2 
   44    41    46    45     2 
   46    44    48    47     2 
   68    48    70    69     2 
   70    68    72    71     2 
   80    77    82    81     2 
   83    72    85    84     2 

[ cmap ]
;  ai    aj    ak    al    am funct
    8    10    12    18    20     1 
   18    20    22    37    39     1 
   37    39    41    44    46     1 
   44    46    48    68    70     1 

; Include Position restraint file
#ifdef POSRES
#include "posre_Protein_chain_B.itp"
#endif

