[ moleculetype ]
; Name            nrexcl
Protein_chain_B     3

[ atoms ]
;   nr       type  resnr residue  atom   cgnr     charge       mass  typeB    chargeB      massB
; residue   1 GLY rtp GLY  q  0.0
     1        NH1      1    GLY      N      1      -0.47     14.007
     2          H      1    GLY     HN      2       0.31      1.008
     3        CT2      1    GLY     CA      3      -0.02     12.011
     4         HB      1    GLY    HA1      4       0.09      1.008
     5         HB      1    GLY    HA2      5       0.09      1.008
     6          C      1    GLY      C      6       0.51     12.011
     7          O      1    GLY      O      7      -0.51     15.999   ; qtot 0
; residue   2 GLU rtp GLU  q -1.0
     8        NH1      2    GLU      N      8      -0.47     14.007
     9          H      2    GLU     HN      9       0.31      1.008
    10        CT1      2    GLU     CA     10       0.07     12.011
    11         HB      2    GLU     HA     11       0.09      1.008
    12        CT2      2    GLU     CB     12      -0.18     12.011
    13         HA      2    GLU    HB1     13       0.09      1.008
    14         HA      2    GLU    HB2     14       0.09      1.008
    15        CT2      2    GLU     CG     15      -0.28     12.011
    16         HA      2    GLU    HG1     16       0.09      1.008
    17         HA      2    GLU    HG2     17       0.09      1.008
    18         CC      2    GLU     CD     18       0.62     12.011
    19         OC      2    GLU    OE1     19      -0.76     15.999
    20         OC      2    GLU    OE2     20      -0.76     15.999
    21          C      2    GLU      C     21       0.51     12.011
    22          O      2    GLU      O     22      -0.51     15.999   ; qtot -1
; residue   3 TRP rtp TRP  q  0.0
    23        NH1      3    TRP      N     23      -0.47     14.007
    24          H      3    TRP     HN     24       0.31      1.008
    25        CT1      3    TRP     CA     25       0.07     12.011
    26         HB      3    TRP     HA     26       0.09      1.008
    27        CT2      3    TRP     CB     27      -0.18     12.011
    28         HA      3    TRP    HB1     28       0.09      1.008
    29         HA      3    TRP    HB2     29       0.09      1.008
    30         CY      3    TRP     CG     30      -0.03     12.011
    31         CA      3    TRP    CD1     31      0.035     12.011
    32         HP      3    TRP    HD1     32      0.115      1.008
    33         NY      3    TRP    NE1     33      -0.61     14.007
    34          H      3    TRP    HE1     34       0.38      1.008
    35        CPT      3    TRP    CE2     35       0.13     12.011
    36        CPT      3    TRP    CD2     36      -0.02     12.011
    37         CA      3    TRP    CE3     37     -0.115     12.011
    38         HP      3    TRP    HE3     38      0.115      1.008
    39         CA      3    TRP    CZ3     39     -0.115     12.011
    40         HP      3    TRP    HZ3     40      0.115      1.008
    41         CA      3    TRP    CZ2     41     -0.115     12.011
    42         HP      3    TRP    HZ2     42      0.115      1.008
    43         CA      3    TRP    CH2     43     -0.115     12.011
    44         HP      3    TRP    HH2     44      0.115      1.008
    45          C      3    TRP      C     45       0.51     12.011
    46          O      3    TRP      O     46      -0.51     15.999   ; qtot -1
; residue   4 ALA rtp ALA  q  0.0
    47        NH1      4    ALA      N     47      -0.47     14.007
    48          H      4    ALA     HN     48       0.31      1.008
    49        CT1      4    ALA     CA     49       0.07     12.011
    50         HB      4    ALA     HA     50       0.09      1.008
    51        CT3      4    ALA     CB     51      -0.27     12.011
    52         HA      4    ALA    HB1     52       0.09      1.008
    53         HA      4    ALA    HB2     53       0.09      1.008
    54         HA      4    ALA    HB3     54       0.09      1.008
    55          C      4    ALA      C     55       0.51     12.011
    56          O      4    ALA      O     56      -0.51     15.999   ; qtot -1
; residue   5 GLU rtp GLU  q -1.0
    57        NH1      5    GLU      N     57      -0.47     14.007
    58          H      5    GLU     HN     58       0.31      1.008
    59        CT1      5    GLU     CA     59       0.07     12.011
    60         HB      5    GLU     HA     60       0.09      1.008
    61        CT2      5    GLU     CB     61      -0.18     12.011
    62         HA      5    GLU    HB1     62       0.09      1.008
    63         HA      5    GLU    HB2     63       0.09      1.008
    64        CT2      5    GLU     CG     64      -0.28     12.011
    65         HA      5    GLU    HG1     65       0.09      1.008
    66         HA      5    GLU    HG2     66       0.09      1.008
    67         CC      5    GLU     CD     67       0.62     12.011
    68         OC      5    GLU    OE1     68      -0.76     15.999
    69         OC      5    GLU    OE2     69      -0.76     15.999
    70          C      5    GLU      C     70       0.51     12.011
    71          O      5    GLU      O     71      -0.51     15.999   ; qtot -2
; residue   6 GLY rtp GLY  q  0.0
    72        NH1      6    GLY      N     72      -0.47     14.007
    73          H      6    GLY     HN     73       0.31      1.008
    74        CT2      6    GLY     CA     74      -0.02     12.011
    75         HB      6    GLY    HA1     75       0.09      1.008
    76         HB      6    GLY    HA2     76       0.09      1.008
    77          C      6    GLY      C     77       0.51     12.011
    78          O      6    GLY      O     78      -0.51     15.999   ; qtot -2

[ bonds ]
;  ai    aj funct            c0            c1            c2            c3
    1     2     1 
    1     3     1 
    1    77     1 
    3     4     1 
    3     5     1 
    3     6     1 
    6     7     1 
    6     8     1 
    8     9     1 
    8    10     1 
   10    11     1 
   10    12     1 
   10    21     1 
   12    13     1 
   12    14     1 
   12    15     1 
   15    16     1 
   15    17     1 
   15    18     1 
   18    19     1 
   18    20     1 
   21    22     1 
   21    23     1 
   23    24     1 
   23    25     1 
   25    26     1 
   25    27     1 
   25    45     1 
   27    28     1 
   27    29     1 
   27    30     1 
   30    31     1 
   30    36     1 
   31    32     1 
   31    33     1 
   33    34     1 
   33    35     1 
   35    36     1 
   35    41     1 
   36    37     1 
   37    38     1 
   37    39     1 
   39    40     1 
   39    43     1 
   41    42     1 
   41    43     1 
   43    44     1 
   45    46     1 
   45    47     1 
   47    48     1 
   47    49     1 
   49    50     1 
   49    51     1 
   49    55     1 
   51    52     1 
   51    53     1 
   51    54     1 
   55    56     1 
   55    57     1 
   57    58     1 
   57    59     1 
   59    60     1 
   59    61     1 
   59    70     1 
   61    62     1 
   61    63     1 
   61    64     1 
   64    65     1 
   64    66     1 
   64    67     1 
   67    68     1 
   67    69     1 
   70    71     1 
   70    72     1 
   72    73     1 
   72    74     1 
   74    75     1 
   74    76     1 
   74    77     1 
   77    78     1 

[ pairs ]
;  ai    aj funct            c0            c1            c2            c3
    1     7     1 
    1     8     1 
    1    72     1 
    1    75     1 
    1    76     1 
    2     4     1 
    2     5     1 
    2     6     1 
    2    74     1 
    2    78     1 
    3     9     1 
    3    10     1 
    3    74     1 
    3    78     1 
    4     7     1 
    4     8     1 
    4    77     1 
    5     7     1 
    5     8     1 
    5    77     1 
    6    11     1 
    6    12     1 
    6    21     1 
    6    77     1 
    7     9     1 
    7    10     1 
    8    13     1 
    8    14     1 
    8    15     1 
    8    22     1 
    8    23     1 
    9    11     1 
    9    12     1 
    9    21     1 
   10    16     1 
   10    17     1 
   10    18     1 
   10    24     1 
   10    25     1 
   11    13     1 
   11    14     1 
   11    15     1 
   11    22     1 
   11    23     1 
   12    19     1 
   12    20     1 
   12    22     1 
   12    23     1 
   13    16     1 
   13    17     1 
   13    18     1 
   13    21     1 
   14    16     1 
   14    17     1 
   14    18     1 
   14    21     1 
   15    21     1 
   16    19     1 
   16    20     1 
   17    19     1 
   17    20     1 
   21    26     1 
   21    27     1 
   21    45     1 
   22    24     1 
   22    25     1 
   23    28     1 
   23    29     1 
   23    30     1 
   23    46     1 
   23    47     1 
   24    26     1 
   24    27     1 
   24    45     1 
   25    31     1 
   25    36     1 
   25    48     1 
   25    49     1 
   26    28     1 
   26    29     1 
   26    30     1 
   26    46     1 
   26    47     1 
   27    32     1 
   27    33     1 
   27    35     1 
   27    37     1 
   27    46     1 
   27    47     1 
   28    31     1 
   28    36     1 
   28    45     1 
   29    31     1 
   29    36     1 
   29    45     1 
   30    34     1 
   30    38     1 
   30    39     1 
   30    41     1 
   30    45     1 
   31    37     1 
   31    41     1 
   32    34     1 
   32    35     1 
   32    36     1 
   33    37     1 
   33    42     1 
   33    43     1 
   34    36     1 
   34    41     1 
   35    38     1 
   35    39     1 
   35    44     1 
   36    40     1 
   36    42     1 
   36    43     1 
   37    41     1 
   37    44     1 
   38    40     1 
   38    43     1 
   39    42     1 
   40    41     1 
   40    44     1 
   42    44     1 
   45    50     1 
   45    51     1 
   45    55     1 
   46    48     1 
   46    49     1 
   47    52     1 
   47    53     1 
   47    54     1 
   47    56     1 
   47    57     1 
   48    50     1 
   48    51     1 
   48    55     1 
   49    58     1 
   49    59     1 
   50    52     1 
   50    53     1 
   50    54     1 
   50    56     1 
   50    57     1 
   51    56     1 
   51    57     1 
   52    55     1 
   53    55     1 
   54    55     1 
   55    60     1 
   55    61     1 
   55    70     1 
   56    58     1 
   56    59     1 
   57    62     1 
   57    63     1 
   57    64     1 
   57    71     1 
   57    72     1 
   58    60     1 
   58    61     1 
   58    70     1 
   59    65     1 
   59    66     1 
   59    67     1 
   59    73     1 
   59    74     1 
   60    62     1 
   60    63     1 
   60    64     1 
   60    71     1 
   60    72     1 
   61    68     1 
   61    69     1 
   61    71     1 
   61    72     1 
   62    65     1 
   62    66     1 
   62    67     1 
   62    70     1 
   63    65     1 
   63    66     1 
   63    67     1 
   63    70     1 
   64    70     1 
   65    68     1 
   65    69     1 
   66    68     1 
   66    69     1 
   70    75     1 
   70    76     1 
   70    77     1 
   71    73     1 
   71    74     1 
   72    78     1 
   73    75     1 
   73    76     1 
   73    77     1 
   75    78     1 
   76    78     1 

[ angles ]
;  ai    aj    ak funct            c0            c1            c2            c3
    2     1     3     5 
    2     1    77     5 
    3     1    77     5 
    1     3     4     5 
    1     3     5     5 
    1     3     6     5 
    4     3     5     5 
    4     3     6     5 
    5     3     6     5 
    3     6     7     5 
    3     6     8     5 
    7     6     8     5 
    6     8     9     5 
    6     8    10     5 
    9     8    10     5 
    8    10    11     5 
    8    10    12     5 
    8    10    21     5 
   11    10    12     5 
   11    10    21     5 
   12    10    21     5 
   10    12    13     5 
   10    12    14     5 
   10    12    15     5 
   13    12    14     5 
   13    12    15     5 
   14    12    15     5 
   12    15    16     5 
   12    15    17     5 
   12    15    18     5 
   16    15    17     5 
   16    15    18     5 
   17    15    18     5 
   15    18    19     5 
   15    18    20     5 
   19    18    20     5 
   10    21    22     5 
   10    21    23     5 
   22    21    23     5 
   21    23    24     5 
   21    23    25     5 
   24    23    25     5 
   23    25    26     5 
   23    25    27     5 
   23    25    45     5 
   26    25    27     5 
   26    25    45     5 
   27    25    45     5 
   25    27    28     5 
   25    27    29     5 
   25    27    30     5 
   28    27    29     5 
   28    27    30     5 
   29    27    30     5 
   27    30    31     5 
   27    30    36     5 
   31    30    36     5 
   30    31    32     5 
   30    31    33     5 
   32    31    33     5 
   31    33    34     5 
   31    33    35     5 
   34    33    35     5 
   33    35    36     5 
   33    35    41     5 
   36    35    41     5 
   30    36    35     5 
   30    36    37     5 
   35    36    37     5 
   36    37    38     5 
   36    37    39     5 
   38    37    39     5 
   37    39    40     5 
   37    39    43     5 
   40    39    43     5 
   35    41    42     5 
   35    41    43     5 
   42    41    43     5 
   39    43    41     5 
   39    43    44     5 
   41    43    44     5 
   25    45    46     5 
   25    45    47     5 
   46    45    47     5 
   45    47    48     5 
   45    47    49     5 
   48    47    49     5 
   47    49    50     5 
   47    49    51     5 
   47    49    55     5 
   50    49    51     5 
   50    49    55     5 
   51    49    55     5 
   49    51    52     5 
   49    51    53     5 
   49    51    54     5 
   52    51    53     5 
   52    51    54     5 
   53    51    54     5 
   49    55    56     5 
   49    55    57     5 
   56    55    57     5 
   55    57    58     5 
   55    57    59     5 
   58    57    59     5 
   57    59    60     5 
   57    59    61     5 
   57    59    70     5 
   60    59    61     5 
   60    59    70     5 
   61    59    70     5 
   59    61    62     5 
   59    61    63     5 
   59    61    64     5 
   62    61    63     5 
   62    61    64     5 
   63    61    64     5 
   61    64    65     5 
   61    64    66     5 
   61    64    67     5 
   65    64    66     5 
   65    64    67     5 
   66    64    67     5 
   64    67    68     5 
   64    67    69     5 
   68    67    69     5 
   59    70    71     5 
   59    70    72     5 
   71    70    72     5 
   70    72    73     5 
   70    72    74     5 
   73    72    74     5 
   72    74    75     5 
   72    74    76     5 
   72    74    77     5 
   75    74    76     5 
   75    74    77     5 
   76    74    77     5 
    1    77    74     5 
    1    77    78     5 
   74    77    78     5 

[ dihedrals ]
;  ai    aj    ak    al funct            c0            c1            c2            c3            c4            c5
    2     1     3     4     9 
    2     1     3     5     9 
    2     1     3     6     9 
   77     1     3     4     9 
   77     1     3     5     9 
   77     1     3     6     9 
    2     1    77    74     9 
    2     1    77    78     9 
    3     1    77    74     9 
    3     1    77    78     9 
    1     3     6     7     9 
    1     3     6     8     9 
    4     3     6     7     9 
    4     3     6     8     9 
    5     3     6     7     9 
    5     3     6     8     9 
    3     6     8     9     9 
    3     6     8    10     9 
    7     6     8     9     9 
    7     6     8    10     9 
    6     8    10    11     9 
    6     8    10    12     9 
    6     8    10    21     9 
    9     8    10    11     9 
    9     8    10    12     9 
    9     8    10    21     9 
    8    10    12    13     9 
    8    10    12    14     9 
    8    10    12    15     9 
   11    10    12    13     9 
   11    10    12    14     9 
   11    10    12    15     9 
   21    10    12    13     9 
   21    10    12    14     9 
   21    10    12    15     9 
    8    10    21    22     9 
    8    10    21    23     9 
   11    10    21    22     9 
   11    10    21    23     9 
   12    10    21    22     9 
   12    10    21    23     9 
   10    12    15    16     9 
   10    12    15    17     9 
   10    12    15    18     9 
   13    12    15    16     9 
   13    12    15    17     9 
   13    12    15    18     9 
   14    12    15    16     9 
   14    12    15    17     9 
   14    12    15    18     9 
   12    15    18    19     9 
   12    15    18    20     9 
   16    15    18    19     9 
   16    15    18    20     9 
   17    15    18    19     9 
   17    15    18    20     9 
   10    21    23    24     9 
   10    21    23    25     9 
   22    21    23    24     9 
   22    21    23    25     9 
   21    23    25    26     9 
   21    23    25    27     9 
   21    23    25    45     9 
   24    23    25    26     9 
   24    23    25    27     9 
   24    23    25    45     9 
   23    25    27    28     9 
   23    25    27    29     9 
   23    25    27    30     9 
   26    25    27    28     9 
   26    25    27    29     9 
   26    25    27    30     9 
   45    25    27    28     9 
   45    25    27    29     9 
   45    25    27    30     9 
   23    25    45    46     9 
   23    25    45    47     9 
   26    25    45    46     9 
   26    25    45    47     9 
   27    25    45    46     9 
   27    25    45    47     9 
   25    27    30    31     9 
   25    27    30    36     9 
   28    27    30    31     9 
   28    27    30    36     9 
   29    27    30    31     9 
   29    27    30    36     9 
   27    30    31    32     9 
   27    30    31    33     9 
   36    30    31    32     9 
   36    30    31    33     9 
   27    30    36    35     9 
   27    30    36    37     9 
   31    30    36    35     9 
   31    30    36    37     9 
   30    31    33    34     9 
   30    31    33    35     9 
   32    31    33    34     9 
   32    31    33    35     9 
   31    33    35    36     9 
   31    33    35    41     9 
   34    33    35    36     9 
   34    33    35    41     9 
   33    35    36    30     9 
   33    35    36    37     9 
   41    35    36    30     9 
   41    35    36    37     9 
   33    35    41    42     9 
   33    35    41    43     9 
   36    35    41    42     9 
   36    35    41    43     9 
   30    36    37    38     9 
   30    36    37    39     9 
   35    36    37    38     9 
   35    36    37    39     9 
   36    37    39    40     9 
   36    37    39    43     9 
   38    37    39    40     9 
   38    37    39    43     9 
   37    39    43    41     9 
   37    39    43    44     9 
   40    39    43    41     9 
   40    39    43    44     9 
   35    41    43    39     9 
   35    41    43    44     9 
   42    41    43    39     9 
   42    41    43    44     9 
   25    45    47    48     9 
   25    45    47    49     9 
   46    45    47    48     9 
   46    45    47    49     9 
   45    47    49    50     9 
   45    47    49    51     9 
   45    47    49    55     9 
   48    47    49    50     9 
   48    47    49    51     9 
   48    47    49    55     9 
   47    49    51    52     9 
   47    49    51    53     9 
   47    49    51    54     9 
   50    49    51    52     9 
   50    49    51    53     9 
   50    49    51    54     9 
   55    49    51    52     9 
   55    49    51    53     9 
   55    49    51    54     9 
   47    49    55    56     9 
   47    49    55    57     9 
   50    49    55    56     9 
   50    49    55    57     9 
   51    49    55    56     9 
   51    49    55    57     9 
   49    55    57    58     9 
   49    55    57    59     9 
   56    55    57    58     9 
   56    55    57    59     9 
   55    57    59    60     9 
   55    57    59    61     9 
   55    57    59    70     9 
   58    57    59    60     9 
   58    57    59    61     9 
   58    57    59    70     9 
   57    59    61    62     9 
   57    59    61    63     9 
   57    59    61    64     9 
   60    59    61    62     9 
   60    59    61    63     9 
   60    59    61    64     9 
   70    59    61    62     9 
   70    59    61    63     9 
   70    59    61    64     9 
   57    59    70    71     9 
   57    59    70    72     9 
   60    59    70    71     9 
   60    59    70    72     9 
   61    59    70    71     9 
   61    59    70    72     9 
   59    61    64    65     9 
   59    61    64    66     9 
   59    61    64    67     9 
   62    61    64    65     9 
   62    61    64    66     9 
   62    61    64    67     9 
   63    61    64    65     9 
   63    61    64    66     9 
   63    61    64    67     9 
   61    64    67    68     9 
   61    64    67    69     9 
   65    64    67    68     9 
   65    64    67    69     9 
   66    64    67    68     9 
   66    64    67    69     9 
   59    70    72    73     9 
   59    70    72    74     9 
   71    70    72    73     9 
   71    70    72    74     9 
   70    72    74    75     9 
   70    72    74    76     9 
   70    72    74    77     9 
   73    72    74    75     9 
   73    72    74    76     9 
   73    72    74    77     9 
   72    74    77     1     9 
   72    74    77    78     9 
   75    74    77     1     9 
   75    74    77    78     9 
   76    74    77     1     9 
   76    74    77    78     9 

[ dihedrals ]
;  ai    aj    ak    al funct            c0            c1            c2            c3
    1    77     3     2     2 
    6     3     8     7     2 
    8     6    10     9     2 
   18    15    20    19     2 
   21    10    23    22     2 
   23    21    25    24     2 
   45    25    47    46     2 
   47    45    49    48     2 
   55    49    57    56     2 
   57    55    59    58     2 
   67    64    69    68     2 
   70    59    72    71     2 
   72    70    74    73     2 
   77    74     1    78     2 

[ cmap ]
;  ai    aj    ak    al    am funct
   77     1     3     6     8     1 
    6     8    10    21    23     1 
   21    23    25    45    47     1 
   45    47    49    55    57     1 
   55    57    59    70    72     1 

#ifdef POSRES
#include "posre_cp.itp"
#endif
