;
;	File 'topol.top' was generated
;	By user: unknown (1000)
;	On host: keke
;	At date: Thu Sep 24 17:39:48 2026
;
;	This is a standalone topology file
;
;	Created by:
;	                    :-) GROMACS - gmx pdb2gmx, 2021.6 (-:
;	
;	Executable:   /usr/local/gromacs/bin/gmx
;	Data prefix:  /usr/local/gromacs
;	Working dir:  /home/zml/MD_6WJL/1760
;	Command line:
;	  gmx pdb2gmx -f 1760.pdb -o complex.gro -ignh
;	Force field was read from the standard GROMACS share directory.
;

; Include forcefield parameters
#include "charmm27.ff/forcefield.itp"

[ moleculetype ]
; Name            nrexcl
Protein_chain_A     3

[ atoms ]
;   nr       type  resnr residue  atom   cgnr     charge       mass  typeB    chargeB      massB
; residue   1 ASP rtp ASP  q -1.0
     1        NH1      1    ASP      N      1      -0.47     14.007
     2          H      1    ASP     HN      2       0.31      1.008
     3        CT1      1    ASP     CA      3       0.07     12.011
     4         HB      1    ASP     HA      4       0.09      1.008
     5        CT2      1    ASP     CB      5      -0.28     12.011
     6         HA      1    ASP    HB1      6       0.09      1.008
     7         HA      1    ASP    HB2      7       0.09      1.008
     8         CC      1    ASP     CG      8       0.62     12.011
     9         OC      1    ASP    OD1      9      -0.76     15.999
    10         OC      1    ASP    OD2     10      -0.76     15.999
    11          C      1    ASP      C     11       0.51     12.011
    12          O      1    ASP      O     12      -0.51     15.999   ; qtot -1
; residue   2 GLU rtp GLU  q -1.0
    13        NH1      2    GLU      N     13      -0.47     14.007
    14          H      2    GLU     HN     14       0.31      1.008
    15        CT1      2    GLU     CA     15       0.07     12.011
    16         HB      2    GLU     HA     16       0.09      1.008
    17        CT2      2    GLU     CB     17      -0.18     12.011
    18         HA      2    GLU    HB1     18       0.09      1.008
    19         HA      2    GLU    HB2     19       0.09      1.008
    20        CT2      2    GLU     CG     20      -0.28     12.011
    21         HA      2    GLU    HG1     21       0.09      1.008
    22         HA      2    GLU    HG2     22       0.09      1.008
    23         CC      2    GLU     CD     23       0.62     12.011
    24         OC      2    GLU    OE1     24      -0.76     15.999
    25         OC      2    GLU    OE2     25      -0.76     15.999
    26          C      2    GLU      C     26       0.51     12.011
    27          O      2    GLU      O     27      -0.51     15.999   ; qtot -2
; residue   3 TRP rtp TRP  q  0.0
    28        NH1      3    TRP      N     28      -0.47     14.007
    29          H      3    TRP     HN     29       0.31      1.008
    30        CT1      3    TRP     CA     30       0.07     12.011
    31         HB      3    TRP     HA     31       0.09      1.008
    32        CT2      3    TRP     CB     32      -0.18     12.011
    33         HA      3    TRP    HB1     33       0.09      1.008
    34         HA      3    TRP    HB2     34       0.09      1.008
    35         CY      3    TRP     CG     35      -0.03     12.011
    36         CA      3    TRP    CD1     36      0.035     12.011
    37         HP      3    TRP    HD1     37      0.115      1.008
    38         NY      3    TRP    NE1     38      -0.61     14.007
    39          H      3    TRP    HE1     39       0.38      1.008
    40        CPT      3    TRP    CE2     40       0.13     12.011
    41        CPT      3    TRP    CD2     41      -0.02     12.011
    42         CA      3    TRP    CE3     42     -0.115     12.011
    43         HP      3    TRP    HE3     43      0.115      1.008
    44         CA      3    TRP    CZ3     44     -0.115     12.011
    45         HP      3    TRP    HZ3     45      0.115      1.008
    46         CA      3    TRP    CZ2     46     -0.115     12.011
    47         HP      3    TRP    HZ2     47      0.115      1.008
    48         CA      3    TRP    CH2     48     -0.115     12.011
    49         HP      3    TRP    HH2     49      0.115      1.008
    50          C      3    TRP      C     50       0.51     12.011
    51          O      3    TRP      O     51      -0.51     15.999   ; qtot -2
; residue   4 ALA rtp ALA  q  0.0
    52        NH1      4    ALA      N     52      -0.47     14.007
    53          H      4    ALA     HN     53       0.31      1.008
    54        CT1      4    ALA     CA     54       0.07     12.011
    55         HB      4    ALA     HA     55       0.09      1.008
    56        CT3      4    ALA     CB     56      -0.27     12.011
    57         HA      4    ALA    HB1     57       0.09      1.008
    58         HA      4    ALA    HB2     58       0.09      1.008
    59         HA      4    ALA    HB3     59       0.09      1.008
    60          C      4    ALA      C     60       0.51     12.011
    61          O      4    ALA      O     61      -0.51     15.999   ; qtot -2
; residue   5 GLU rtp GLU  q -1.0
    62        NH1      5    GLU      N     62      -0.47     14.007
    63          H      5    GLU     HN     63       0.31      1.008
    64        CT1      5    GLU     CA     64       0.07     12.011
    65         HB      5    GLU     HA     65       0.09      1.008
    66        CT2      5    GLU     CB     66      -0.18     12.011
    67         HA      5    GLU    HB1     67       0.09      1.008
    68         HA      5    GLU    HB2     68       0.09      1.008
    69        CT2      5    GLU     CG     69      -0.28     12.011
    70         HA      5    GLU    HG1     70       0.09      1.008
    71         HA      5    GLU    HG2     71       0.09      1.008
    72         CC      5    GLU     CD     72       0.62     12.011
    73         OC      5    GLU    OE1     73      -0.76     15.999
    74         OC      5    GLU    OE2     74      -0.76     15.999
    75          C      5    GLU      C     75       0.51     12.011
    76          O      5    GLU      O     76      -0.51     15.999   ; qtot -3
; residue   6 GLY rtp GLY  q  0.0
    77        NH1      6    GLY      N     77      -0.47     14.007
    78          H      6    GLY     HN     78       0.31      1.008
    79        CT2      6    GLY     CA     79      -0.02     12.011
    80         HB      6    GLY    HA1     80       0.09      1.008
    81         HB      6    GLY    HA2     81       0.09      1.008
    82          C      6    GLY      C     82       0.51     12.011
    83          O      6    GLY      O     83      -0.51     15.999   ; qtot -3

[ bonds ]
;  ai    aj funct            c0            c1            c2            c3
    1     2     1 
    1     3     1 
    1    82     1 
    3     4     1 
    3     5     1 
    3    11     1 
    5     6     1 
    5     7     1 
    5     8     1 
    8     9     1 
    8    10     1 
   11    12     1 
   11    13     1 
   13    14     1 
   13    15     1 
   15    16     1 
   15    17     1 
   15    26     1 
   17    18     1 
   17    19     1 
   17    20     1 
   20    21     1 
   20    22     1 
   20    23     1 
   23    24     1 
   23    25     1 
   26    27     1 
   26    28     1 
   28    29     1 
   28    30     1 
   30    31     1 
   30    32     1 
   30    50     1 
   32    33     1 
   32    34     1 
   32    35     1 
   35    36     1 
   35    41     1 
   36    37     1 
   36    38     1 
   38    39     1 
   38    40     1 
   40    41     1 
   40    46     1 
   41    42     1 
   42    43     1 
   42    44     1 
   44    45     1 
   44    48     1 
   46    47     1 
   46    48     1 
   48    49     1 
   50    51     1 
   50    52     1 
   52    53     1 
   52    54     1 
   54    55     1 
   54    56     1 
   54    60     1 
   56    57     1 
   56    58     1 
   56    59     1 
   60    61     1 
   60    62     1 
   62    63     1 
   62    64     1 
   64    65     1 
   64    66     1 
   64    75     1 
   66    67     1 
   66    68     1 
   66    69     1 
   69    70     1 
   69    71     1 
   69    72     1 
   72    73     1 
   72    74     1 
   75    76     1 
   75    77     1 
   77    78     1 
   77    79     1 
   79    80     1 
   79    81     1 
   79    82     1 
   82    83     1 

[ pairs ]
;  ai    aj funct            c0            c1            c2            c3
    1     6     1 
    1     7     1 
    1     8     1 
    1    12     1 
    1    13     1 
    1    77     1 
    1    80     1 
    1    81     1 
    2     4     1 
    2     5     1 
    2    11     1 
    2    79     1 
    2    83     1 
    3     9     1 
    3    10     1 
    3    14     1 
    3    15     1 
    3    79     1 
    3    83     1 
    4     6     1 
    4     7     1 
    4     8     1 
    4    12     1 
    4    13     1 
    4    82     1 
    5    12     1 
    5    13     1 
    5    82     1 
    6     9     1 
    6    10     1 
    6    11     1 
    7     9     1 
    7    10     1 
    7    11     1 
    8    11     1 
   11    16     1 
   11    17     1 
   11    26     1 
   11    82     1 
   12    14     1 
   12    15     1 
   13    18     1 
   13    19     1 
   13    20     1 
   13    27     1 
   13    28     1 
   14    16     1 
   14    17     1 
   14    26     1 
   15    21     1 
   15    22     1 
   15    23     1 
   15    29     1 
   15    30     1 
   16    18     1 
   16    19     1 
   16    20     1 
   16    27     1 
   16    28     1 
   17    24     1 
   17    25     1 
   17    27     1 
   17    28     1 
   18    21     1 
   18    22     1 
   18    23     1 
   18    26     1 
   19    21     1 
   19    22     1 
   19    23     1 
   19    26     1 
   20    26     1 
   21    24     1 
   21    25     1 
   22    24     1 
   22    25     1 
   26    31     1 
   26    32     1 
   26    50     1 
   27    29     1 
   27    30     1 
   28    33     1 
   28    34     1 
   28    35     1 
   28    51     1 
   28    52     1 
   29    31     1 
   29    32     1 
   29    50     1 
   30    36     1 
   30    41     1 
   30    53     1 
   30    54     1 
   31    33     1 
   31    34     1 
   31    35     1 
   31    51     1 
   31    52     1 
   32    37     1 
   32    38     1 
   32    40     1 
   32    42     1 
   32    51     1 
   32    52     1 
   33    36     1 
   33    41     1 
   33    50     1 
   34    36     1 
   34    41     1 
   34    50     1 
   35    39     1 
   35    43     1 
   35    44     1 
   35    46     1 
   35    50     1 
   36    42     1 
   36    46     1 
   37    39     1 
   37    40     1 
   37    41     1 
   38    42     1 
   38    47     1 
   38    48     1 
   39    41     1 
   39    46     1 
   40    43     1 
   40    44     1 
   40    49     1 
   41    45     1 
   41    47     1 
   41    48     1 
   42    46     1 
   42    49     1 
   43    45     1 
   43    48     1 
   44    47     1 
   45    46     1 
   45    49     1 
   47    49     1 
   50    55     1 
   50    56     1 
   50    60     1 
   51    53     1 
   51    54     1 
   52    57     1 
   52    58     1 
   52    59     1 
   52    61     1 
   52    62     1 
   53    55     1 
   53    56     1 
   53    60     1 
   54    63     1 
   54    64     1 
   55    57     1 
   55    58     1 
   55    59     1 
   55    61     1 
   55    62     1 
   56    61     1 
   56    62     1 
   57    60     1 
   58    60     1 
   59    60     1 
   60    65     1 
   60    66     1 
   60    75     1 
   61    63     1 
   61    64     1 
   62    67     1 
   62    68     1 
   62    69     1 
   62    76     1 
   62    77     1 
   63    65     1 
   63    66     1 
   63    75     1 
   64    70     1 
   64    71     1 
   64    72     1 
   64    78     1 
   64    79     1 
   65    67     1 
   65    68     1 
   65    69     1 
   65    76     1 
   65    77     1 
   66    73     1 
   66    74     1 
   66    76     1 
   66    77     1 
   67    70     1 
   67    71     1 
   67    72     1 
   67    75     1 
   68    70     1 
   68    71     1 
   68    72     1 
   68    75     1 
   69    75     1 
   70    73     1 
   70    74     1 
   71    73     1 
   71    74     1 
   75    80     1 
   75    81     1 
   75    82     1 
   76    78     1 
   76    79     1 
   77    83     1 
   78    80     1 
   78    81     1 
   78    82     1 
   80    83     1 
   81    83     1 

[ angles ]
;  ai    aj    ak funct            c0            c1            c2            c3
    2     1     3     5 
    2     1    82     5 
    3     1    82     5 
    1     3     4     5 
    1     3     5     5 
    1     3    11     5 
    4     3     5     5 
    4     3    11     5 
    5     3    11     5 
    3     5     6     5 
    3     5     7     5 
    3     5     8     5 
    6     5     7     5 
    6     5     8     5 
    7     5     8     5 
    5     8     9     5 
    5     8    10     5 
    9     8    10     5 
    3    11    12     5 
    3    11    13     5 
   12    11    13     5 
   11    13    14     5 
   11    13    15     5 
   14    13    15     5 
   13    15    16     5 
   13    15    17     5 
   13    15    26     5 
   16    15    17     5 
   16    15    26     5 
   17    15    26     5 
   15    17    18     5 
   15    17    19     5 
   15    17    20     5 
   18    17    19     5 
   18    17    20     5 
   19    17    20     5 
   17    20    21     5 
   17    20    22     5 
   17    20    23     5 
   21    20    22     5 
   21    20    23     5 
   22    20    23     5 
   20    23    24     5 
   20    23    25     5 
   24    23    25     5 
   15    26    27     5 
   15    26    28     5 
   27    26    28     5 
   26    28    29     5 
   26    28    30     5 
   29    28    30     5 
   28    30    31     5 
   28    30    32     5 
   28    30    50     5 
   31    30    32     5 
   31    30    50     5 
   32    30    50     5 
   30    32    33     5 
   30    32    34     5 
   30    32    35     5 
   33    32    34     5 
   33    32    35     5 
   34    32    35     5 
   32    35    36     5 
   32    35    41     5 
   36    35    41     5 
   35    36    37     5 
   35    36    38     5 
   37    36    38     5 
   36    38    39     5 
   36    38    40     5 
   39    38    40     5 
   38    40    41     5 
   38    40    46     5 
   41    40    46     5 
   35    41    40     5 
   35    41    42     5 
   40    41    42     5 
   41    42    43     5 
   41    42    44     5 
   43    42    44     5 
   42    44    45     5 
   42    44    48     5 
   45    44    48     5 
   40    46    47     5 
   40    46    48     5 
   47    46    48     5 
   44    48    46     5 
   44    48    49     5 
   46    48    49     5 
   30    50    51     5 
   30    50    52     5 
   51    50    52     5 
   50    52    53     5 
   50    52    54     5 
   53    52    54     5 
   52    54    55     5 
   52    54    56     5 
   52    54    60     5 
   55    54    56     5 
   55    54    60     5 
   56    54    60     5 
   54    56    57     5 
   54    56    58     5 
   54    56    59     5 
   57    56    58     5 
   57    56    59     5 
   58    56    59     5 
   54    60    61     5 
   54    60    62     5 
   61    60    62     5 
   60    62    63     5 
   60    62    64     5 
   63    62    64     5 
   62    64    65     5 
   62    64    66     5 
   62    64    75     5 
   65    64    66     5 
   65    64    75     5 
   66    64    75     5 
   64    66    67     5 
   64    66    68     5 
   64    66    69     5 
   67    66    68     5 
   67    66    69     5 
   68    66    69     5 
   66    69    70     5 
   66    69    71     5 
   66    69    72     5 
   70    69    71     5 
   70    69    72     5 
   71    69    72     5 
   69    72    73     5 
   69    72    74     5 
   73    72    74     5 
   64    75    76     5 
   64    75    77     5 
   76    75    77     5 
   75    77    78     5 
   75    77    79     5 
   78    77    79     5 
   77    79    80     5 
   77    79    81     5 
   77    79    82     5 
   80    79    81     5 
   80    79    82     5 
   81    79    82     5 
    1    82    79     5 
    1    82    83     5 
   79    82    83     5 

[ dihedrals ]
;  ai    aj    ak    al funct            c0            c1            c2            c3            c4            c5
    2     1     3     4     9 
    2     1     3     5     9 
    2     1     3    11     9 
   82     1     3     4     9 
   82     1     3     5     9 
   82     1     3    11     9 
    2     1    82    79     9 
    2     1    82    83     9 
    3     1    82    79     9 
    3     1    82    83     9 
    1     3     5     6     9 
    1     3     5     7     9 
    1     3     5     8     9 
    4     3     5     6     9 
    4     3     5     7     9 
    4     3     5     8     9 
   11     3     5     6     9 
   11     3     5     7     9 
   11     3     5     8     9 
    1     3    11    12     9 
    1     3    11    13     9 
    4     3    11    12     9 
    4     3    11    13     9 
    5     3    11    12     9 
    5     3    11    13     9 
    3     5     8     9     9 
    3     5     8    10     9 
    6     5     8     9     9 
    6     5     8    10     9 
    7     5     8     9     9 
    7     5     8    10     9 
    3    11    13    14     9 
    3    11    13    15     9 
   12    11    13    14     9 
   12    11    13    15     9 
   11    13    15    16     9 
   11    13    15    17     9 
   11    13    15    26     9 
   14    13    15    16     9 
   14    13    15    17     9 
   14    13    15    26     9 
   13    15    17    18     9 
   13    15    17    19     9 
   13    15    17    20     9 
   16    15    17    18     9 
   16    15    17    19     9 
   16    15    17    20     9 
   26    15    17    18     9 
   26    15    17    19     9 
   26    15    17    20     9 
   13    15    26    27     9 
   13    15    26    28     9 
   16    15    26    27     9 
   16    15    26    28     9 
   17    15    26    27     9 
   17    15    26    28     9 
   15    17    20    21     9 
   15    17    20    22     9 
   15    17    20    23     9 
   18    17    20    21     9 
   18    17    20    22     9 
   18    17    20    23     9 
   19    17    20    21     9 
   19    17    20    22     9 
   19    17    20    23     9 
   17    20    23    24     9 
   17    20    23    25     9 
   21    20    23    24     9 
   21    20    23    25     9 
   22    20    23    24     9 
   22    20    23    25     9 
   15    26    28    29     9 
   15    26    28    30     9 
   27    26    28    29     9 
   27    26    28    30     9 
   26    28    30    31     9 
   26    28    30    32     9 
   26    28    30    50     9 
   29    28    30    31     9 
   29    28    30    32     9 
   29    28    30    50     9 
   28    30    32    33     9 
   28    30    32    34     9 
   28    30    32    35     9 
   31    30    32    33     9 
   31    30    32    34     9 
   31    30    32    35     9 
   50    30    32    33     9 
   50    30    32    34     9 
   50    30    32    35     9 
   28    30    50    51     9 
   28    30    50    52     9 
   31    30    50    51     9 
   31    30    50    52     9 
   32    30    50    51     9 
   32    30    50    52     9 
   30    32    35    36     9 
   30    32    35    41     9 
   33    32    35    36     9 
   33    32    35    41     9 
   34    32    35    36     9 
   34    32    35    41     9 
   32    35    36    37     9 
   32    35    36    38     9 
   41    35    36    37     9 
   41    35    36    38     9 
   32    35    41    40     9 
   32    35    41    42     9 
   36    35    41    40     9 
   36    35    41    42     9 
   35    36    38    39     9 
   35    36    38    40     9 
   37    36    38    39     9 
   37    36    38    40     9 
   36    38    40    41     9 
   36    38    40    46     9 
   39    38    40    41     9 
   39    38    40    46     9 
   38    40    41    35     9 
   38    40    41    42     9 
   46    40    41    35     9 
   46    40    41    42     9 
   38    40    46    47     9 
   38    40    46    48     9 
   41    40    46    47     9 
   41    40    46    48     9 
   35    41    42    43     9 
   35    41    42    44     9 
   40    41    42    43     9 
   40    41    42    44     9 
   41    42    44    45     9 
   41    42    44    48     9 
   43    42    44    45     9 
   43    42    44    48     9 
   42    44    48    46     9 
   42    44    48    49     9 
   45    44    48    46     9 
   45    44    48    49     9 
   40    46    48    44     9 
   40    46    48    49     9 
   47    46    48    44     9 
   47    46    48    49     9 
   30    50    52    53     9 
   30    50    52    54     9 
   51    50    52    53     9 
   51    50    52    54     9 
   50    52    54    55     9 
   50    52    54    56     9 
   50    52    54    60     9 
   53    52    54    55     9 
   53    52    54    56     9 
   53    52    54    60     9 
   52    54    56    57     9 
   52    54    56    58     9 
   52    54    56    59     9 
   55    54    56    57     9 
   55    54    56    58     9 
   55    54    56    59     9 
   60    54    56    57     9 
   60    54    56    58     9 
   60    54    56    59     9 
   52    54    60    61     9 
   52    54    60    62     9 
   55    54    60    61     9 
   55    54    60    62     9 
   56    54    60    61     9 
   56    54    60    62     9 
   54    60    62    63     9 
   54    60    62    64     9 
   61    60    62    63     9 
   61    60    62    64     9 
   60    62    64    65     9 
   60    62    64    66     9 
   60    62    64    75     9 
   63    62    64    65     9 
   63    62    64    66     9 
   63    62    64    75     9 
   62    64    66    67     9 
   62    64    66    68     9 
   62    64    66    69     9 
   65    64    66    67     9 
   65    64    66    68     9 
   65    64    66    69     9 
   75    64    66    67     9 
   75    64    66    68     9 
   75    64    66    69     9 
   62    64    75    76     9 
   62    64    75    77     9 
   65    64    75    76     9 
   65    64    75    77     9 
   66    64    75    76     9 
   66    64    75    77     9 
   64    66    69    70     9 
   64    66    69    71     9 
   64    66    69    72     9 
   67    66    69    70     9 
   67    66    69    71     9 
   67    66    69    72     9 
   68    66    69    70     9 
   68    66    69    71     9 
   68    66    69    72     9 
   66    69    72    73     9 
   66    69    72    74     9 
   70    69    72    73     9 
   70    69    72    74     9 
   71    69    72    73     9 
   71    69    72    74     9 
   64    75    77    78     9 
   64    75    77    79     9 
   76    75    77    78     9 
   76    75    77    79     9 
   75    77    79    80     9 
   75    77    79    81     9 
   75    77    79    82     9 
   78    77    79    80     9 
   78    77    79    81     9 
   78    77    79    82     9 
   77    79    82     1     9 
   77    79    82    83     9 
   80    79    82     1     9 
   80    79    82    83     9 
   81    79    82     1     9 
   81    79    82    83     9 

[ dihedrals ]
;  ai    aj    ak    al funct            c0            c1            c2            c3
    1    82     3     2     2 
    8     5    10     9     2 
   11     3    13    12     2 
   13    11    15    14     2 
   23    20    25    24     2 
   26    15    28    27     2 
   28    26    30    29     2 
   50    30    52    51     2 
   52    50    54    53     2 
   60    54    62    61     2 
   62    60    64    63     2 
   72    69    74    73     2 
   75    64    77    76     2 
   77    75    79    78     2 
   82    79     1    83     2 

[ cmap ]
;  ai    aj    ak    al    am funct
   82     1     3    11    13     1 
   11    13    15    26    28     1 
   26    28    30    50    52     1 
   50    52    54    60    62     1 
   60    62    64    75    77     1 

; Include Position restraint file
#ifdef POSRES
#include "posre.itp"
#endif

; Include water topology
#include "charmm27.ff/tip3p.itp"

#ifdef POSRES_WATER
; Position restraint for each water oxygen
[ position_restraints ]
;  i funct       fcx        fcy        fcz
   1    1       1000       1000       1000
#endif

; Include topology for ions
#include "charmm27.ff/ions.itp"

[ system ]
; Name
Protein in water

[ molecules ]
; Compound        #mols
Protein_chain_A     1
SOL         943
NA               6
CL               3
