[ moleculetype ]
; Name            nrexcl
Protein_chain_B     3

[ atoms ]
;   nr       type  resnr residue  atom   cgnr     charge       mass  typeB    chargeB      massB
; residue   1 ASP rtp ASP  q -1.0
     1        NH1      1    ASP      N      1      -0.47     14.007
     2          H      1    ASP     HN      2       0.31      1.008
     3        CT1      1    ASP     CA      3       0.07     12.011
     4         HB      1    ASP     HA      4       0.09      1.008
     5        CT2      1    ASP     CB      5      -0.28     12.011
     6         HA      1    ASP    HB1      6       0.09      1.008
     7         HA      1    ASP    HB2      7       0.09      1.008
     8         CC      1    ASP     CG      8       0.62     12.011
     9         OC      1    ASP    OD1      9      -0.76     15.999
    10         OC      1    ASP    OD2     10      -0.76     15.999
    11          C      1    ASP      C     11       0.51     12.011
    12          O      1    ASP      O     12      -0.51     15.999   ; qtot -1
; residue   2 GLY rtp GLY  q  0.0
    13        NH1      2    GLY      N     13      -0.47     14.007
    14          H      2    GLY     HN     14       0.31      1.008
    15        CT2      2    GLY     CA     15      -0.02     12.011
    16         HB      2    GLY    HA1     16       0.09      1.008
    17         HB      2    GLY    HA2     17       0.09      1.008
    18          C      2    GLY      C     18       0.51     12.011
    19          O      2    GLY      O     19      -0.51     15.999   ; qtot -1
; residue   3 GLU rtp GLU  q -1.0
    20        NH1      3    GLU      N     20      -0.47     14.007
    21          H      3    GLU     HN     21       0.31      1.008
    22        CT1      3    GLU     CA     22       0.07     12.011
    23         HB      3    GLU     HA     23       0.09      1.008
    24        CT2      3    GLU     CB     24      -0.18     12.011
    25         HA      3    GLU    HB1     25       0.09      1.008
    26         HA      3    GLU    HB2     26       0.09      1.008
    27        CT2      3    GLU     CG     27      -0.28     12.011
    28         HA      3    GLU    HG1     28       0.09      1.008
    29         HA      3    GLU    HG2     29       0.09      1.008
    30         CC      3    GLU     CD     30       0.62     12.011
    31         OC      3    GLU    OE1     31      -0.76     15.999
    32         OC      3    GLU    OE2     32      -0.76     15.999
    33          C      3    GLU      C     33       0.51     12.011
    34          O      3    GLU      O     34      -0.51     15.999   ; qtot -2
; residue   4 LEU rtp LEU  q  0.0
    35        NH1      4    LEU      N     35      -0.47     14.007
    36          H      4    LEU     HN     36       0.31      1.008
    37        CT1      4    LEU     CA     37       0.07     12.011
    38         HB      4    LEU     HA     38       0.09      1.008
    39        CT2      4    LEU     CB     39      -0.18     12.011
    40         HA      4    LEU    HB1     40       0.09      1.008
    41         HA      4    LEU    HB2     41       0.09      1.008
    42        CT1      4    LEU     CG     42      -0.09     12.011
    43         HA      4    LEU     HG     43       0.09      1.008
    44        CT3      4    LEU    CD1     44      -0.27     12.011
    45         HA      4    LEU   HD11     45       0.09      1.008
    46         HA      4    LEU   HD12     46       0.09      1.008
    47         HA      4    LEU   HD13     47       0.09      1.008
    48        CT3      4    LEU    CD2     48      -0.27     12.011
    49         HA      4    LEU   HD21     49       0.09      1.008
    50         HA      4    LEU   HD22     50       0.09      1.008
    51         HA      4    LEU   HD23     51       0.09      1.008
    52          C      4    LEU      C     52       0.51     12.011
    53          O      4    LEU      O     53      -0.51     15.999   ; qtot -2
; residue   5 ASP rtp ASP  q -1.0
    54        NH1      5    ASP      N     54      -0.47     14.007
    55          H      5    ASP     HN     55       0.31      1.008
    56        CT1      5    ASP     CA     56       0.07     12.011
    57         HB      5    ASP     HA     57       0.09      1.008
    58        CT2      5    ASP     CB     58      -0.28     12.011
    59         HA      5    ASP    HB1     59       0.09      1.008
    60         HA      5    ASP    HB2     60       0.09      1.008
    61         CC      5    ASP     CG     61       0.62     12.011
    62         OC      5    ASP    OD1     62      -0.76     15.999
    63         OC      5    ASP    OD2     63      -0.76     15.999
    64          C      5    ASP      C     64       0.51     12.011
    65          O      5    ASP      O     65      -0.51     15.999   ; qtot -3
; residue   6 GLU rtp GLU  q -1.0
    66        NH1      6    GLU      N     66      -0.47     14.007
    67          H      6    GLU     HN     67       0.31      1.008
    68        CT1      6    GLU     CA     68       0.07     12.011
    69         HB      6    GLU     HA     69       0.09      1.008
    70        CT2      6    GLU     CB     70      -0.18     12.011
    71         HA      6    GLU    HB1     71       0.09      1.008
    72         HA      6    GLU    HB2     72       0.09      1.008
    73        CT2      6    GLU     CG     73      -0.28     12.011
    74         HA      6    GLU    HG1     74       0.09      1.008
    75         HA      6    GLU    HG2     75       0.09      1.008
    76         CC      6    GLU     CD     76       0.62     12.011
    77         OC      6    GLU    OE1     77      -0.76     15.999
    78         OC      6    GLU    OE2     78      -0.76     15.999
    79          C      6    GLU      C     79       0.51     12.011
    80          O      6    GLU      O     80      -0.51     15.999   ; qtot -4

[ bonds ]
;  ai    aj funct            c0            c1            c2            c3
    1     2     1 
    1     3     1 
    1    79     1 
    3     4     1 
    3     5     1 
    3    11     1 
    5     6     1 
    5     7     1 
    5     8     1 
    8     9     1 
    8    10     1 
   11    12     1 
   11    13     1 
   13    14     1 
   13    15     1 
   15    16     1 
   15    17     1 
   15    18     1 
   18    19     1 
   18    20     1 
   20    21     1 
   20    22     1 
   22    23     1 
   22    24     1 
   22    33     1 
   24    25     1 
   24    26     1 
   24    27     1 
   27    28     1 
   27    29     1 
   27    30     1 
   30    31     1 
   30    32     1 
   33    34     1 
   33    35     1 
   35    36     1 
   35    37     1 
   37    38     1 
   37    39     1 
   37    52     1 
   39    40     1 
   39    41     1 
   39    42     1 
   42    43     1 
   42    44     1 
   42    48     1 
   44    45     1 
   44    46     1 
   44    47     1 
   48    49     1 
   48    50     1 
   48    51     1 
   52    53     1 
   52    54     1 
   54    55     1 
   54    56     1 
   56    57     1 
   56    58     1 
   56    64     1 
   58    59     1 
   58    60     1 
   58    61     1 
   61    62     1 
   61    63     1 
   64    65     1 
   64    66     1 
   66    67     1 
   66    68     1 
   68    69     1 
   68    70     1 
   68    79     1 
   70    71     1 
   70    72     1 
   70    73     1 
   73    74     1 
   73    75     1 
   73    76     1 
   76    77     1 
   76    78     1 
   79    80     1 

[ pairs ]
;  ai    aj funct            c0            c1            c2            c3
    1     6     1 
    1     7     1 
    1     8     1 
    1    12     1 
    1    13     1 
    1    66     1 
    1    69     1 
    1    70     1 
    2     4     1 
    2     5     1 
    2    11     1 
    2    68     1 
    2    80     1 
    3     9     1 
    3    10     1 
    3    14     1 
    3    15     1 
    3    68     1 
    3    80     1 
    4     6     1 
    4     7     1 
    4     8     1 
    4    12     1 
    4    13     1 
    4    79     1 
    5    12     1 
    5    13     1 
    5    79     1 
    6     9     1 
    6    10     1 
    6    11     1 
    7     9     1 
    7    10     1 
    7    11     1 
    8    11     1 
   11    16     1 
   11    17     1 
   11    18     1 
   11    79     1 
   12    14     1 
   12    15     1 
   13    19     1 
   13    20     1 
   14    16     1 
   14    17     1 
   14    18     1 
   15    21     1 
   15    22     1 
   16    19     1 
   16    20     1 
   17    19     1 
   17    20     1 
   18    23     1 
   18    24     1 
   18    33     1 
   19    21     1 
   19    22     1 
   20    25     1 
   20    26     1 
   20    27     1 
   20    34     1 
   20    35     1 
   21    23     1 
   21    24     1 
   21    33     1 
   22    28     1 
   22    29     1 
   22    30     1 
   22    36     1 
   22    37     1 
   23    25     1 
   23    26     1 
   23    27     1 
   23    34     1 
   23    35     1 
   24    31     1 
   24    32     1 
   24    34     1 
   24    35     1 
   25    28     1 
   25    29     1 
   25    30     1 
   25    33     1 
   26    28     1 
   26    29     1 
   26    30     1 
   26    33     1 
   27    33     1 
   28    31     1 
   28    32     1 
   29    31     1 
   29    32     1 
   33    38     1 
   33    39     1 
   33    52     1 
   34    36     1 
   34    37     1 
   35    40     1 
   35    41     1 
   35    42     1 
   35    53     1 
   35    54     1 
   36    38     1 
   36    39     1 
   36    52     1 
   37    43     1 
   37    44     1 
   37    48     1 
   37    55     1 
   37    56     1 
   38    40     1 
   38    41     1 
   38    42     1 
   38    53     1 
   38    54     1 
   39    45     1 
   39    46     1 
   39    47     1 
   39    49     1 
   39    50     1 
   39    51     1 
   39    53     1 
   39    54     1 
   40    43     1 
   40    44     1 
   40    48     1 
   40    52     1 
   41    43     1 
   41    44     1 
   41    48     1 
   41    52     1 
   42    52     1 
   43    45     1 
   43    46     1 
   43    47     1 
   43    49     1 
   43    50     1 
   43    51     1 
   44    49     1 
   44    50     1 
   44    51     1 
   45    48     1 
   46    48     1 
   47    48     1 
   52    57     1 
   52    58     1 
   52    64     1 
   53    55     1 
   53    56     1 
   54    59     1 
   54    60     1 
   54    61     1 
   54    65     1 
   54    66     1 
   55    57     1 
   55    58     1 
   55    64     1 
   56    62     1 
   56    63     1 
   56    67     1 
   56    68     1 
   57    59     1 
   57    60     1 
   57    61     1 
   57    65     1 
   57    66     1 
   58    65     1 
   58    66     1 
   59    62     1 
   59    63     1 
   59    64     1 
   60    62     1 
   60    63     1 
   60    64     1 
   61    64     1 
   64    69     1 
   64    70     1 
   64    79     1 
   65    67     1 
   65    68     1 
   66    71     1 
   66    72     1 
   66    73     1 
   66    80     1 
   67    69     1 
   67    70     1 
   67    79     1 
   68    74     1 
   68    75     1 
   68    76     1 
   69    71     1 
   69    72     1 
   69    73     1 
   69    80     1 
   70    77     1 
   70    78     1 
   70    80     1 
   71    74     1 
   71    75     1 
   71    76     1 
   71    79     1 
   72    74     1 
   72    75     1 
   72    76     1 
   72    79     1 
   73    79     1 
   74    77     1 
   74    78     1 
   75    77     1 
   75    78     1 

[ angles ]
;  ai    aj    ak funct            c0            c1            c2            c3
    2     1     3     5 
    2     1    79     5 
    3     1    79     5 
    1     3     4     5 
    1     3     5     5 
    1     3    11     5 
    4     3     5     5 
    4     3    11     5 
    5     3    11     5 
    3     5     6     5 
    3     5     7     5 
    3     5     8     5 
    6     5     7     5 
    6     5     8     5 
    7     5     8     5 
    5     8     9     5 
    5     8    10     5 
    9     8    10     5 
    3    11    12     5 
    3    11    13     5 
   12    11    13     5 
   11    13    14     5 
   11    13    15     5 
   14    13    15     5 
   13    15    16     5 
   13    15    17     5 
   13    15    18     5 
   16    15    17     5 
   16    15    18     5 
   17    15    18     5 
   15    18    19     5 
   15    18    20     5 
   19    18    20     5 
   18    20    21     5 
   18    20    22     5 
   21    20    22     5 
   20    22    23     5 
   20    22    24     5 
   20    22    33     5 
   23    22    24     5 
   23    22    33     5 
   24    22    33     5 
   22    24    25     5 
   22    24    26     5 
   22    24    27     5 
   25    24    26     5 
   25    24    27     5 
   26    24    27     5 
   24    27    28     5 
   24    27    29     5 
   24    27    30     5 
   28    27    29     5 
   28    27    30     5 
   29    27    30     5 
   27    30    31     5 
   27    30    32     5 
   31    30    32     5 
   22    33    34     5 
   22    33    35     5 
   34    33    35     5 
   33    35    36     5 
   33    35    37     5 
   36    35    37     5 
   35    37    38     5 
   35    37    39     5 
   35    37    52     5 
   38    37    39     5 
   38    37    52     5 
   39    37    52     5 
   37    39    40     5 
   37    39    41     5 
   37    39    42     5 
   40    39    41     5 
   40    39    42     5 
   41    39    42     5 
   39    42    43     5 
   39    42    44     5 
   39    42    48     5 
   43    42    44     5 
   43    42    48     5 
   44    42    48     5 
   42    44    45     5 
   42    44    46     5 
   42    44    47     5 
   45    44    46     5 
   45    44    47     5 
   46    44    47     5 
   42    48    49     5 
   42    48    50     5 
   42    48    51     5 
   49    48    50     5 
   49    48    51     5 
   50    48    51     5 
   37    52    53     5 
   37    52    54     5 
   53    52    54     5 
   52    54    55     5 
   52    54    56     5 
   55    54    56     5 
   54    56    57     5 
   54    56    58     5 
   54    56    64     5 
   57    56    58     5 
   57    56    64     5 
   58    56    64     5 
   56    58    59     5 
   56    58    60     5 
   56    58    61     5 
   59    58    60     5 
   59    58    61     5 
   60    58    61     5 
   58    61    62     5 
   58    61    63     5 
   62    61    63     5 
   56    64    65     5 
   56    64    66     5 
   65    64    66     5 
   64    66    67     5 
   64    66    68     5 
   67    66    68     5 
   66    68    69     5 
   66    68    70     5 
   66    68    79     5 
   69    68    70     5 
   69    68    79     5 
   70    68    79     5 
   68    70    71     5 
   68    70    72     5 
   68    70    73     5 
   71    70    72     5 
   71    70    73     5 
   72    70    73     5 
   70    73    74     5 
   70    73    75     5 
   70    73    76     5 
   74    73    75     5 
   74    73    76     5 
   75    73    76     5 
   73    76    77     5 
   73    76    78     5 
   77    76    78     5 
    1    79    68     5 
    1    79    80     5 
   68    79    80     5 

[ dihedrals ]
;  ai    aj    ak    al funct            c0            c1            c2            c3            c4            c5
    2     1     3     4     9 
    2     1     3     5     9 
    2     1     3    11     9 
   79     1     3     4     9 
   79     1     3     5     9 
   79     1     3    11     9 
    2     1    79    68     9 
    2     1    79    80     9 
    3     1    79    68     9 
    3     1    79    80     9 
    1     3     5     6     9 
    1     3     5     7     9 
    1     3     5     8     9 
    4     3     5     6     9 
    4     3     5     7     9 
    4     3     5     8     9 
   11     3     5     6     9 
   11     3     5     7     9 
   11     3     5     8     9 
    1     3    11    12     9 
    1     3    11    13     9 
    4     3    11    12     9 
    4     3    11    13     9 
    5     3    11    12     9 
    5     3    11    13     9 
    3     5     8     9     9 
    3     5     8    10     9 
    6     5     8     9     9 
    6     5     8    10     9 
    7     5     8     9     9 
    7     5     8    10     9 
    3    11    13    14     9 
    3    11    13    15     9 
   12    11    13    14     9 
   12    11    13    15     9 
   11    13    15    16     9 
   11    13    15    17     9 
   11    13    15    18     9 
   14    13    15    16     9 
   14    13    15    17     9 
   14    13    15    18     9 
   13    15    18    19     9 
   13    15    18    20     9 
   16    15    18    19     9 
   16    15    18    20     9 
   17    15    18    19     9 
   17    15    18    20     9 
   15    18    20    21     9 
   15    18    20    22     9 
   19    18    20    21     9 
   19    18    20    22     9 
   18    20    22    23     9 
   18    20    22    24     9 
   18    20    22    33     9 
   21    20    22    23     9 
   21    20    22    24     9 
   21    20    22    33     9 
   20    22    24    25     9 
   20    22    24    26     9 
   20    22    24    27     9 
   23    22    24    25     9 
   23    22    24    26     9 
   23    22    24    27     9 
   33    22    24    25     9 
   33    22    24    26     9 
   33    22    24    27     9 
   20    22    33    34     9 
   20    22    33    35     9 
   23    22    33    34     9 
   23    22    33    35     9 
   24    22    33    34     9 
   24    22    33    35     9 
   22    24    27    28     9 
   22    24    27    29     9 
   22    24    27    30     9 
   25    24    27    28     9 
   25    24    27    29     9 
   25    24    27    30     9 
   26    24    27    28     9 
   26    24    27    29     9 
   26    24    27    30     9 
   24    27    30    31     9 
   24    27    30    32     9 
   28    27    30    31     9 
   28    27    30    32     9 
   29    27    30    31     9 
   29    27    30    32     9 
   22    33    35    36     9 
   22    33    35    37     9 
   34    33    35    36     9 
   34    33    35    37     9 
   33    35    37    38     9 
   33    35    37    39     9 
   33    35    37    52     9 
   36    35    37    38     9 
   36    35    37    39     9 
   36    35    37    52     9 
   35    37    39    40     9 
   35    37    39    41     9 
   35    37    39    42     9 
   38    37    39    40     9 
   38    37    39    41     9 
   38    37    39    42     9 
   52    37    39    40     9 
   52    37    39    41     9 
   52    37    39    42     9 
   35    37    52    53     9 
   35    37    52    54     9 
   38    37    52    53     9 
   38    37    52    54     9 
   39    37    52    53     9 
   39    37    52    54     9 
   37    39    42    43     9 
   37    39    42    44     9 
   37    39    42    48     9 
   40    39    42    43     9 
   40    39    42    44     9 
   40    39    42    48     9 
   41    39    42    43     9 
   41    39    42    44     9 
   41    39    42    48     9 
   39    42    44    45     9 
   39    42    44    46     9 
   39    42    44    47     9 
   43    42    44    45     9 
   43    42    44    46     9 
   43    42    44    47     9 
   48    42    44    45     9 
   48    42    44    46     9 
   48    42    44    47     9 
   39    42    48    49     9 
   39    42    48    50     9 
   39    42    48    51     9 
   43    42    48    49     9 
   43    42    48    50     9 
   43    42    48    51     9 
   44    42    48    49     9 
   44    42    48    50     9 
   44    42    48    51     9 
   37    52    54    55     9 
   37    52    54    56     9 
   53    52    54    55     9 
   53    52    54    56     9 
   52    54    56    57     9 
   52    54    56    58     9 
   52    54    56    64     9 
   55    54    56    57     9 
   55    54    56    58     9 
   55    54    56    64     9 
   54    56    58    59     9 
   54    56    58    60     9 
   54    56    58    61     9 
   57    56    58    59     9 
   57    56    58    60     9 
   57    56    58    61     9 
   64    56    58    59     9 
   64    56    58    60     9 
   64    56    58    61     9 
   54    56    64    65     9 
   54    56    64    66     9 
   57    56    64    65     9 
   57    56    64    66     9 
   58    56    64    65     9 
   58    56    64    66     9 
   56    58    61    62     9 
   56    58    61    63     9 
   59    58    61    62     9 
   59    58    61    63     9 
   60    58    61    62     9 
   60    58    61    63     9 
   56    64    66    67     9 
   56    64    66    68     9 
   65    64    66    67     9 
   65    64    66    68     9 
   64    66    68    69     9 
   64    66    68    70     9 
   64    66    68    79     9 
   67    66    68    69     9 
   67    66    68    70     9 
   67    66    68    79     9 
   66    68    70    71     9 
   66    68    70    72     9 
   66    68    70    73     9 
   69    68    70    71     9 
   69    68    70    72     9 
   69    68    70    73     9 
   79    68    70    71     9 
   79    68    70    72     9 
   79    68    70    73     9 
   66    68    79     1     9 
   66    68    79    80     9 
   69    68    79     1     9 
   69    68    79    80     9 
   70    68    79     1     9 
   70    68    79    80     9 
   68    70    73    74     9 
   68    70    73    75     9 
   68    70    73    76     9 
   71    70    73    74     9 
   71    70    73    75     9 
   71    70    73    76     9 
   72    70    73    74     9 
   72    70    73    75     9 
   72    70    73    76     9 
   70    73    76    77     9 
   70    73    76    78     9 
   74    73    76    77     9 
   74    73    76    78     9 
   75    73    76    77     9 
   75    73    76    78     9 

[ dihedrals ]
;  ai    aj    ak    al funct            c0            c1            c2            c3
    1    79     3     2     2 
    8     5    10     9     2 
   11     3    13    12     2 
   13    11    15    14     2 
   18    15    20    19     2 
   20    18    22    21     2 
   30    27    32    31     2 
   33    22    35    34     2 
   35    33    37    36     2 
   52    37    54    53     2 
   54    52    56    55     2 
   61    58    63    62     2 
   64    56    66    65     2 
   66    64    68    67     2 
   76    73    78    77     2 
   79    68     1    80     2 

[ cmap ]
;  ai    aj    ak    al    am funct
   79     1     3    11    13     1 
   11    13    15    18    20     1 
   18    20    22    33    35     1 
   33    35    37    52    54     1 
   52    54    56    64    66     1 
   
#ifdef POSRES
#include "posre_cp.itp"
#endif 
