[ moleculetype ]
; Name            nrexcl
Protein_chain_B     3

[ atoms ]
;   nr       type  resnr residue  atom   cgnr     charge       mass  typeB    chargeB      massB
; residue   1 GLY rtp GLY  q +1.0
     1        NH3      1    GLY      N      1       -0.3     14.007
     2         HC      1    GLY     H1      2       0.33      1.008
     3         HC      1    GLY     H2      3       0.33      1.008
     4         HC      1    GLY     H3      4       0.33      1.008
     5        CT2      1    GLY     CA      5       0.13     12.011
     6         HB      1    GLY    HA1      6       0.09      1.008
     7         HB      1    GLY    HA2      7       0.09      1.008
     8          C      1    GLY      C      8       0.51     12.011
     9          O      1    GLY      O      9      -0.51     15.999   ; qtot 1
; residue   2 GLY rtp GLY  q  0.0
    10        NH1      2    GLY      N     10      -0.47     14.007
    11          H      2    GLY     HN     11       0.31      1.008
    12        CT2      2    GLY     CA     12      -0.02     12.011
    13         HB      2    GLY    HA1     13       0.09      1.008
    14         HB      2    GLY    HA2     14       0.09      1.008
    15          C      2    GLY      C     15       0.51     12.011
    16          O      2    GLY      O     16      -0.51     15.999   ; qtot 1
; residue   3 TRP rtp TRP  q  0.0
    17        NH1      3    TRP      N     17      -0.47     14.007
    18          H      3    TRP     HN     18       0.31      1.008
    19        CT1      3    TRP     CA     19       0.07     12.011
    20         HB      3    TRP     HA     20       0.09      1.008
    21        CT2      3    TRP     CB     21      -0.18     12.011
    22         HA      3    TRP    HB1     22       0.09      1.008
    23         HA      3    TRP    HB2     23       0.09      1.008
    24         CY      3    TRP     CG     24      -0.03     12.011
    25         CA      3    TRP    CD1     25      0.035     12.011
    26         HP      3    TRP    HD1     26      0.115      1.008
    27         NY      3    TRP    NE1     27      -0.61     14.007
    28          H      3    TRP    HE1     28       0.38      1.008
    29        CPT      3    TRP    CE2     29       0.13     12.011
    30        CPT      3    TRP    CD2     30      -0.02     12.011
    31         CA      3    TRP    CE3     31     -0.115     12.011
    32         HP      3    TRP    HE3     32      0.115      1.008
    33         CA      3    TRP    CZ3     33     -0.115     12.011
    34         HP      3    TRP    HZ3     34      0.115      1.008
    35         CA      3    TRP    CZ2     35     -0.115     12.011
    36         HP      3    TRP    HZ2     36      0.115      1.008
    37         CA      3    TRP    CH2     37     -0.115     12.011
    38         HP      3    TRP    HH2     38      0.115      1.008
    39          C      3    TRP      C     39       0.51     12.011
    40          O      3    TRP      O     40      -0.51     15.999   ; qtot 1
; residue   4 ASP rtp ASP  q -1.0
    41        NH1      4    ASP      N     41      -0.47     14.007
    42          H      4    ASP     HN     42       0.31      1.008
    43        CT1      4    ASP     CA     43       0.07     12.011
    44         HB      4    ASP     HA     44       0.09      1.008
    45        CT2      4    ASP     CB     45      -0.28     12.011
    46         HA      4    ASP    HB1     46       0.09      1.008
    47         HA      4    ASP    HB2     47       0.09      1.008
    48         CC      4    ASP     CG     48       0.62     12.011
    49         OC      4    ASP    OD1     49      -0.76     15.999
    50         OC      4    ASP    OD2     50      -0.76     15.999
    51          C      4    ASP      C     51       0.51     12.011
    52          O      4    ASP      O     52      -0.51     15.999   ; qtot 0
; residue   5 ASP rtp ASP  q -1.0
    53        NH1      5    ASP      N     53      -0.47     14.007
    54          H      5    ASP     HN     54       0.31      1.008
    55        CT1      5    ASP     CA     55       0.07     12.011
    56         HB      5    ASP     HA     56       0.09      1.008
    57        CT2      5    ASP     CB     57      -0.28     12.011
    58         HA      5    ASP    HB1     58       0.09      1.008
    59         HA      5    ASP    HB2     59       0.09      1.008
    60         CC      5    ASP     CG     60       0.62     12.011
    61         OC      5    ASP    OD1     61      -0.76     15.999
    62         OC      5    ASP    OD2     62      -0.76     15.999
    63          C      5    ASP      C     63       0.51     12.011
    64          O      5    ASP      O     64      -0.51     15.999   ; qtot -1
; residue   6 GLY rtp GLY  q -1.0
    65        NH1      6    GLY      N     65      -0.47     14.007
    66          H      6    GLY     HN     66       0.31      1.008
    67        CT2      6    GLY     CA     67      -0.02     12.011
    68         HB      6    GLY    HA1     68       0.09      1.008
    69         HB      6    GLY    HA2     69       0.09      1.008
    70         CC      6    GLY      C     70       0.34     12.011
    71         OC      6    GLY    OT1     71      -0.67    15.9994
    72         OC      6    GLY    OT2     72      -0.67    15.9994   ; qtot -2

[ bonds ]
;  ai    aj funct            c0            c1            c2            c3
    1     2     1 
    1     3     1 
    1     4     1 
    1     5     1 
    5     6     1 
    5     7     1 
    5     8     1 
    8     9     1 
    8    10     1 
   10    11     1 
   10    12     1 
   12    13     1 
   12    14     1 
   12    15     1 
   15    16     1 
   15    17     1 
   17    18     1 
   17    19     1 
   19    20     1 
   19    21     1 
   19    39     1 
   21    22     1 
   21    23     1 
   21    24     1 
   24    25     1 
   24    30     1 
   25    26     1 
   25    27     1 
   27    28     1 
   27    29     1 
   29    30     1 
   29    35     1 
   30    31     1 
   31    32     1 
   31    33     1 
   33    34     1 
   33    37     1 
   35    36     1 
   35    37     1 
   37    38     1 
   39    40     1 
   39    41     1 
   41    42     1 
   41    43     1 
   43    44     1 
   43    45     1 
   43    51     1 
   45    46     1 
   45    47     1 
   45    48     1 
   48    49     1 
   48    50     1 
   51    52     1 
   51    53     1 
   53    54     1 
   53    55     1 
   55    56     1 
   55    57     1 
   55    63     1 
   57    58     1 
   57    59     1 
   57    60     1 
   60    61     1 
   60    62     1 
   63    64     1 
   63    65     1 
   65    66     1 
   65    67     1 
   67    68     1 
   67    69     1 
   67    70     1 
   70    71     1 
   70    72     1 

[ pairs ]
;  ai    aj funct            c0            c1            c2            c3
    1     9     1 
    1    10     1 
    2     6     1 
    2     7     1 
    2     8     1 
    3     6     1 
    3     7     1 
    3     8     1 
    4     6     1 
    4     7     1 
    4     8     1 
    5    11     1 
    5    12     1 
    6     9     1 
    6    10     1 
    7     9     1 
    7    10     1 
    8    13     1 
    8    14     1 
    8    15     1 
    9    11     1 
    9    12     1 
   10    16     1 
   10    17     1 
   11    13     1 
   11    14     1 
   11    15     1 
   12    18     1 
   12    19     1 
   13    16     1 
   13    17     1 
   14    16     1 
   14    17     1 
   15    20     1 
   15    21     1 
   15    39     1 
   16    18     1 
   16    19     1 
   17    22     1 
   17    23     1 
   17    24     1 
   17    40     1 
   17    41     1 
   18    20     1 
   18    21     1 
   18    39     1 
   19    25     1 
   19    30     1 
   19    42     1 
   19    43     1 
   20    22     1 
   20    23     1 
   20    24     1 
   20    40     1 
   20    41     1 
   21    26     1 
   21    27     1 
   21    29     1 
   21    31     1 
   21    40     1 
   21    41     1 
   22    25     1 
   22    30     1 
   22    39     1 
   23    25     1 
   23    30     1 
   23    39     1 
   24    28     1 
   24    32     1 
   24    33     1 
   24    35     1 
   24    39     1 
   25    31     1 
   25    35     1 
   26    28     1 
   26    29     1 
   26    30     1 
   27    31     1 
   27    36     1 
   27    37     1 
   28    30     1 
   28    35     1 
   29    32     1 
   29    33     1 
   29    38     1 
   30    34     1 
   30    36     1 
   30    37     1 
   31    35     1 
   31    38     1 
   32    34     1 
   32    37     1 
   33    36     1 
   34    35     1 
   34    38     1 
   36    38     1 
   39    44     1 
   39    45     1 
   39    51     1 
   40    42     1 
   40    43     1 
   41    46     1 
   41    47     1 
   41    48     1 
   41    52     1 
   41    53     1 
   42    44     1 
   42    45     1 
   42    51     1 
   43    49     1 
   43    50     1 
   43    54     1 
   43    55     1 
   44    46     1 
   44    47     1 
   44    48     1 
   44    52     1 
   44    53     1 
   45    52     1 
   45    53     1 
   46    49     1 
   46    50     1 
   46    51     1 
   47    49     1 
   47    50     1 
   47    51     1 
   48    51     1 
   51    56     1 
   51    57     1 
   51    63     1 
   52    54     1 
   52    55     1 
   53    58     1 
   53    59     1 
   53    60     1 
   53    64     1 
   53    65     1 
   54    56     1 
   54    57     1 
   54    63     1 
   55    61     1 
   55    62     1 
   55    66     1 
   55    67     1 
   56    58     1 
   56    59     1 
   56    60     1 
   56    64     1 
   56    65     1 
   57    64     1 
   57    65     1 
   58    61     1 
   58    62     1 
   58    63     1 
   59    61     1 
   59    62     1 
   59    63     1 
   60    63     1 
   63    68     1 
   63    69     1 
   63    70     1 
   64    66     1 
   64    67     1 
   65    71     1 
   65    72     1 
   66    68     1 
   66    69     1 
   66    70     1 
   68    71     1 
   68    72     1 
   69    71     1 
   69    72     1 

[ angles ]
;  ai    aj    ak funct            c0            c1            c2            c3
    2     1     3     5 
    2     1     4     5 
    2     1     5     5 
    3     1     4     5 
    3     1     5     5 
    4     1     5     5 
    1     5     6     5 
    1     5     7     5 
    1     5     8     5 
    6     5     7     5 
    6     5     8     5 
    7     5     8     5 
    5     8     9     5 
    5     8    10     5 
    9     8    10     5 
    8    10    11     5 
    8    10    12     5 
   11    10    12     5 
   10    12    13     5 
   10    12    14     5 
   10    12    15     5 
   13    12    14     5 
   13    12    15     5 
   14    12    15     5 
   12    15    16     5 
   12    15    17     5 
   16    15    17     5 
   15    17    18     5 
   15    17    19     5 
   18    17    19     5 
   17    19    20     5 
   17    19    21     5 
   17    19    39     5 
   20    19    21     5 
   20    19    39     5 
   21    19    39     5 
   19    21    22     5 
   19    21    23     5 
   19    21    24     5 
   22    21    23     5 
   22    21    24     5 
   23    21    24     5 
   21    24    25     5 
   21    24    30     5 
   25    24    30     5 
   24    25    26     5 
   24    25    27     5 
   26    25    27     5 
   25    27    28     5 
   25    27    29     5 
   28    27    29     5 
   27    29    30     5 
   27    29    35     5 
   30    29    35     5 
   24    30    29     5 
   24    30    31     5 
   29    30    31     5 
   30    31    32     5 
   30    31    33     5 
   32    31    33     5 
   31    33    34     5 
   31    33    37     5 
   34    33    37     5 
   29    35    36     5 
   29    35    37     5 
   36    35    37     5 
   33    37    35     5 
   33    37    38     5 
   35    37    38     5 
   19    39    40     5 
   19    39    41     5 
   40    39    41     5 
   39    41    42     5 
   39    41    43     5 
   42    41    43     5 
   41    43    44     5 
   41    43    45     5 
   41    43    51     5 
   44    43    45     5 
   44    43    51     5 
   45    43    51     5 
   43    45    46     5 
   43    45    47     5 
   43    45    48     5 
   46    45    47     5 
   46    45    48     5 
   47    45    48     5 
   45    48    49     5 
   45    48    50     5 
   49    48    50     5 
   43    51    52     5 
   43    51    53     5 
   52    51    53     5 
   51    53    54     5 
   51    53    55     5 
   54    53    55     5 
   53    55    56     5 
   53    55    57     5 
   53    55    63     5 
   56    55    57     5 
   56    55    63     5 
   57    55    63     5 
   55    57    58     5 
   55    57    59     5 
   55    57    60     5 
   58    57    59     5 
   58    57    60     5 
   59    57    60     5 
   57    60    61     5 
   57    60    62     5 
   61    60    62     5 
   55    63    64     5 
   55    63    65     5 
   64    63    65     5 
   63    65    66     5 
   63    65    67     5 
   66    65    67     5 
   65    67    68     5 
   65    67    69     5 
   65    67    70     5 
   68    67    69     5 
   68    67    70     5 
   69    67    70     5 
   67    70    71     5 
   67    70    72     5 
   71    70    72     5 

[ dihedrals ]
;  ai    aj    ak    al funct            c0            c1            c2            c3            c4            c5
    2     1     5     6     9 
    2     1     5     7     9 
    2     1     5     8     9 
    3     1     5     6     9 
    3     1     5     7     9 
    3     1     5     8     9 
    4     1     5     6     9 
    4     1     5     7     9 
    4     1     5     8     9 
    1     5     8     9     9 
    1     5     8    10     9 
    6     5     8     9     9 
    6     5     8    10     9 
    7     5     8     9     9 
    7     5     8    10     9 
    5     8    10    11     9 
    5     8    10    12     9 
    9     8    10    11     9 
    9     8    10    12     9 
    8    10    12    13     9 
    8    10    12    14     9 
    8    10    12    15     9 
   11    10    12    13     9 
   11    10    12    14     9 
   11    10    12    15     9 
   10    12    15    16     9 
   10    12    15    17     9 
   13    12    15    16     9 
   13    12    15    17     9 
   14    12    15    16     9 
   14    12    15    17     9 
   12    15    17    18     9 
   12    15    17    19     9 
   16    15    17    18     9 
   16    15    17    19     9 
   15    17    19    20     9 
   15    17    19    21     9 
   15    17    19    39     9 
   18    17    19    20     9 
   18    17    19    21     9 
   18    17    19    39     9 
   17    19    21    22     9 
   17    19    21    23     9 
   17    19    21    24     9 
   20    19    21    22     9 
   20    19    21    23     9 
   20    19    21    24     9 
   39    19    21    22     9 
   39    19    21    23     9 
   39    19    21    24     9 
   17    19    39    40     9 
   17    19    39    41     9 
   20    19    39    40     9 
   20    19    39    41     9 
   21    19    39    40     9 
   21    19    39    41     9 
   19    21    24    25     9 
   19    21    24    30     9 
   22    21    24    25     9 
   22    21    24    30     9 
   23    21    24    25     9 
   23    21    24    30     9 
   21    24    25    26     9 
   21    24    25    27     9 
   30    24    25    26     9 
   30    24    25    27     9 
   21    24    30    29     9 
   21    24    30    31     9 
   25    24    30    29     9 
   25    24    30    31     9 
   24    25    27    28     9 
   24    25    27    29     9 
   26    25    27    28     9 
   26    25    27    29     9 
   25    27    29    30     9 
   25    27    29    35     9 
   28    27    29    30     9 
   28    27    29    35     9 
   27    29    30    24     9 
   27    29    30    31     9 
   35    29    30    24     9 
   35    29    30    31     9 
   27    29    35    36     9 
   27    29    35    37     9 
   30    29    35    36     9 
   30    29    35    37     9 
   24    30    31    32     9 
   24    30    31    33     9 
   29    30    31    32     9 
   29    30    31    33     9 
   30    31    33    34     9 
   30    31    33    37     9 
   32    31    33    34     9 
   32    31    33    37     9 
   31    33    37    35     9 
   31    33    37    38     9 
   34    33    37    35     9 
   34    33    37    38     9 
   29    35    37    33     9 
   29    35    37    38     9 
   36    35    37    33     9 
   36    35    37    38     9 
   19    39    41    42     9 
   19    39    41    43     9 
   40    39    41    42     9 
   40    39    41    43     9 
   39    41    43    44     9 
   39    41    43    45     9 
   39    41    43    51     9 
   42    41    43    44     9 
   42    41    43    45     9 
   42    41    43    51     9 
   41    43    45    46     9 
   41    43    45    47     9 
   41    43    45    48     9 
   44    43    45    46     9 
   44    43    45    47     9 
   44    43    45    48     9 
   51    43    45    46     9 
   51    43    45    47     9 
   51    43    45    48     9 
   41    43    51    52     9 
   41    43    51    53     9 
   44    43    51    52     9 
   44    43    51    53     9 
   45    43    51    52     9 
   45    43    51    53     9 
   43    45    48    49     9 
   43    45    48    50     9 
   46    45    48    49     9 
   46    45    48    50     9 
   47    45    48    49     9 
   47    45    48    50     9 
   43    51    53    54     9 
   43    51    53    55     9 
   52    51    53    54     9 
   52    51    53    55     9 
   51    53    55    56     9 
   51    53    55    57     9 
   51    53    55    63     9 
   54    53    55    56     9 
   54    53    55    57     9 
   54    53    55    63     9 
   53    55    57    58     9 
   53    55    57    59     9 
   53    55    57    60     9 
   56    55    57    58     9 
   56    55    57    59     9 
   56    55    57    60     9 
   63    55    57    58     9 
   63    55    57    59     9 
   63    55    57    60     9 
   53    55    63    64     9 
   53    55    63    65     9 
   56    55    63    64     9 
   56    55    63    65     9 
   57    55    63    64     9 
   57    55    63    65     9 
   55    57    60    61     9 
   55    57    60    62     9 
   58    57    60    61     9 
   58    57    60    62     9 
   59    57    60    61     9 
   59    57    60    62     9 
   55    63    65    66     9 
   55    63    65    67     9 
   64    63    65    66     9 
   64    63    65    67     9 
   63    65    67    68     9 
   63    65    67    69     9 
   63    65    67    70     9 
   66    65    67    68     9 
   66    65    67    69     9 
   66    65    67    70     9 
   65    67    70    71     9 
   65    67    70    72     9 
   68    67    70    71     9 
   68    67    70    72     9 
   69    67    70    71     9 
   69    67    70    72     9 

[ dihedrals ]
;  ai    aj    ak    al funct            c0            c1            c2            c3
    8     5    10     9     2 
   10     8    12    11     2 
   15    12    17    16     2 
   17    15    19    18     2 
   39    19    41    40     2 
   41    39    43    42     2 
   48    45    50    49     2 
   51    43    53    52     2 
   53    51    55    54     2 
   60    57    62    61     2 
   63    55    65    64     2 
   65    63    67    66     2 
   70    67    72    71     2 

[ cmap ]
;  ai    aj    ak    al    am funct
    8    10    12    15    17     1 
   15    17    19    39    41     1 
   39    41    43    51    53     1 
   51    53    55    63    65     1 
   
#ifdef POSRES
#include "posre_cp.itp"
#endif
